 TITLE="poloidal viscosity for solution of GS equation with flow"
 Variables ="theta", "r", "R [m] ","z [m]", "viscosity"
 ZONE I=         100,J=          44,F=Point
 0.899353865E-03   0.403498685E-01   0.186798957E+01   0.362691453E-04  -0.508704872E-02
 0.473767679E-02   0.403313296E-01   0.186797058E+01   0.190992717E-03  -0.508012161E-02
 0.116391775E-01   0.402995874E-01   0.186793656E+01   0.468915108E-03  -0.506745548E-02
 0.215986473E-01   0.402573866E-01   0.186788770E+01   0.869350496E-03  -0.504869631E-02
 0.346065430E-01   0.402086845E-01   0.186782433E+01   0.139122988E-02  -0.502333307E-02
 0.506501997E-01   0.401586075E-01   0.186774683E+01   0.203317218E-02  -0.499815753E-02
 0.697139564E-01   0.401127916E-01   0.186765507E+01   0.279417266E-02  -0.499797507E-02
 0.917791922E-01   0.400778080E-01   0.186754885E+01   0.367314081E-02  -0.501541759E-02
 0.116824351E+00   0.400609956E-01   0.186742765E+01   0.466942542E-02  -0.500236723E-02
 0.144824962E+00   0.400754491E-01   0.186729562E+01   0.578367354E-02  -0.489514647E-02
 0.175753667E+00   0.401252392E-01   0.186714684E+01   0.701584358E-02  -0.507550426E-02
 0.209580248E+00   0.402269062E-01   0.186698638E+01   0.836926856E-02  -0.506614181E-02
 0.246271653E+00   0.403520138E-01   0.186677424E+01   0.983737422E-02  -0.652790387E-02
 0.285792031E+00   0.405293412E-01   0.186652513E+01   0.114259351E-01  -0.655736654E-02
 0.328102769E+00   0.407919169E-01   0.186625559E+01   0.131451296E-01  -0.658367541E-02
 0.373162524E+00   0.411547526E-01   0.186596219E+01   0.150033951E-01  -0.643427661E-02
 0.420927270E+00   0.415972744E-01   0.186560600E+01   0.169968581E-01  -0.115330238E-01
 0.471350337E+00   0.417085343E-01   0.186480018E+01   0.189394221E-01  -0.189397014E-01
 0.524382457E+00   0.418401451E-01   0.186385796E+01   0.209484296E-01  -0.186603470E-01
 0.579971813E+00   0.421045057E-01   0.186285921E+01   0.230732889E-01  -0.188202888E-01
 0.638064089E+00   0.425243792E-01   0.186179742E+01   0.253293036E-01  -0.190753812E-01
 0.698602525E+00   0.431260064E-01   0.186066307E+01   0.277364387E-01  -0.193409352E-01
 0.761527970E+00   0.439436564E-01   0.185944533E+01   0.303223891E-01  -0.198544443E-01
 0.826778940E+00   0.450261905E-01   0.185813330E+01   0.331285032E-01  -0.192045636E-01
 0.894291679E+00   0.457527118E-01   0.185628451E+01   0.356761295E-01  -0.369784216E-01
 0.964000221E+00   0.460246746E-01   0.185388480E+01   0.378082895E-01  -0.365598955E-01
 0.103583646E+01   0.465591508E-01   0.185137588E+01   0.400543271E-01  -0.370503344E-01
 0.110973019E+01   0.473846627E-01   0.184872111E+01   0.424367789E-01  -0.373949889E-01
 0.118560923E+01   0.480634208E-01   0.184569895E+01   0.445416263E-01  -0.468970970E-01
 0.126339943E+01   0.485516087E-01   0.184233035E+01   0.462757326E-01  -0.469083825E-01
 0.134302479E+01   0.493886366E-01   0.183879194E+01   0.481130624E-01  -0.479737698E-01
 0.142440750E+01   0.496934352E-01   0.183488800E+01   0.491619857E-01  -0.542873274E-01
 0.150746804E+01   0.498655126E-01   0.183079549E+01   0.497655543E-01  -0.544181875E-01
 0.159212526E+01   0.500288776E-01   0.182657376E+01   0.500174956E-01  -0.540125514E-01
 0.167829644E+01   0.493586290E-01   0.182234378E+01   0.490736971E-01  -0.538079757E-01
 0.176589739E+01   0.490494237E-01   0.181813108E+01   0.481189304E-01  -0.516351113E-01
 0.185484251E+01   0.479205083E-01   0.181421038E+01   0.460003063E-01  -0.468715476E-01
 0.194504489E+01   0.470715860E-01   0.181043162E+01   0.438134139E-01  -0.461544280E-01
 0.203641640E+01   0.462740389E-01   0.180686397E+01   0.413479584E-01  -0.378054606E-01
 0.212886777E+01   0.452291186E-01   0.180368860E+01   0.383668702E-01  -0.377814570E-01
 0.222230865E+01   0.445994323E-01   0.180059521E+01   0.354641256E-01  -0.375013455E-01
 0.231664774E+01   0.436409318E-01   0.179802496E+01   0.320545794E-01  -0.233730642E-01
 0.241179288E+01   0.422141996E-01   0.179617716E+01   0.281450789E-01  -0.204915547E-01
 0.250765110E+01   0.412123741E-01   0.179443496E+01   0.244111344E-01  -0.200927041E-01
 0.260412873E+01   0.406177017E-01   0.179274872E+01   0.207946206E-01  -0.198735111E-01
 0.270113151E+01   0.404094793E-01   0.179108708E+01   0.172287786E-01  -0.139337629E-01
 0.279856465E+01   0.394762778E-01   0.179046330E+01   0.132774455E-01  -0.703414679E-02
 0.289633297E+01   0.389361388E-01   0.178986876E+01   0.945399998E-02  -0.695975415E-02
 0.299434092E+01   0.387748293E-01   0.178928450E+01   0.568902854E-02  -0.693447483E-02
 0.309249275E+01   0.389830493E-01   0.178870365E+01   0.191356759E-02  -0.651382046E-02
 0.319069256E+01   0.389831082E-01   0.178870359E+01  -0.191357029E-02   0.651525963E-02
 0.328884439E+01   0.387748325E-01   0.178928450E+01  -0.568902901E-02   0.693510859E-02
 0.338685234E+01   0.389360929E-01   0.178986881E+01  -0.945398883E-02   0.696046587E-02
 0.348462065E+01   0.394761657E-01   0.179046340E+01  -0.132774078E-01   0.703511497E-02
 0.358205380E+01   0.404093848E-01   0.179108717E+01  -0.172287383E-01   0.139291578E-01
 0.367905658E+01   0.406176451E-01   0.179274877E+01  -0.207945916E-01   0.198740484E-01
 0.377553421E+01   0.412122311E-01   0.179443507E+01  -0.244110497E-01   0.200940802E-01
 0.387139242E+01   0.422140493E-01   0.179617727E+01  -0.281449786E-01   0.204917841E-01
 0.396653756E+01   0.436406705E-01   0.179802514E+01  -0.320543871E-01   0.233739946E-01
 0.406087666E+01   0.445993770E-01   0.180059524E+01  -0.354640815E-01   0.375022916E-01
 0.415431754E+01   0.452289865E-01   0.180368867E+01  -0.383667581E-01   0.377819813E-01
 0.424676890E+01   0.462738962E-01   0.180686403E+01  -0.413478307E-01   0.378056460E-01
 0.433814041E+01   0.470714914E-01   0.181043165E+01  -0.438133258E-01   0.461550124E-01
 0.442834280E+01   0.479203472E-01   0.181421042E+01  -0.460001517E-01   0.468724451E-01
 0.451728792E+01   0.490493322E-01   0.181813110E+01  -0.481188405E-01   0.516340444E-01
 0.460488886E+01   0.493585518E-01   0.182234379E+01  -0.490736203E-01   0.538081765E-01
 0.469106005E+01   0.500287531E-01   0.182657377E+01  -0.500173711E-01   0.540109808E-01
 0.477571727E+01   0.498655772E-01   0.183079550E+01  -0.497656188E-01   0.544182795E-01
 0.485877781E+01   0.496934270E-01   0.183488800E+01  -0.491619776E-01   0.542873241E-01
 0.494016052E+01   0.493887951E-01   0.183879198E+01  -0.481132168E-01   0.479747609E-01
 0.501978587E+01   0.485517369E-01   0.184233039E+01  -0.462758548E-01   0.469082185E-01
 0.509757607E+01   0.480635006E-01   0.184569898E+01  -0.445417003E-01   0.468973322E-01
 0.517345511E+01   0.473848391E-01   0.184872119E+01  -0.424369369E-01   0.373944309E-01
 0.524734885E+01   0.465593242E-01   0.185137597E+01  -0.400544762E-01   0.370506911E-01
 0.531918509E+01   0.460247643E-01   0.185388485E+01  -0.378083631E-01   0.365597534E-01
 0.538889363E+01   0.457527635E-01   0.185628455E+01  -0.356761702E-01   0.369781778E-01
 0.545640637E+01   0.450264167E-01   0.185813345E+01  -0.331286702E-01   0.192034483E-01
 0.552165734E+01   0.439438655E-01   0.185944548E+01  -0.303225335E-01   0.198525912E-01
 0.558458278E+01   0.431262137E-01   0.186066323E+01  -0.277365717E-01   0.193422662E-01
 0.564512122E+01   0.425245122E-01   0.186179753E+01  -0.253293826E-01   0.190753515E-01
 0.570321349E+01   0.421045923E-01   0.186285928E+01  -0.230733363E-01   0.188197735E-01
 0.575880285E+01   0.418402002E-01   0.186385801E+01  -0.209484572E-01   0.186599098E-01
 0.581183497E+01   0.417085529E-01   0.186480020E+01  -0.189394305E-01   0.189396890E-01
 0.586225804E+01   0.415973887E-01   0.186560610E+01  -0.169969046E-01   0.115359811E-01
 0.591002278E+01   0.411549139E-01   0.186596234E+01  -0.150034540E-01   0.643372645E-02
 0.595508254E+01   0.407920306E-01   0.186625570E+01  -0.131451662E-01   0.658301995E-02
 0.599739328E+01   0.405294212E-01   0.186652521E+01  -0.114259576E-01   0.655678965E-02
 0.603691365E+01   0.403520692E-01   0.186677430E+01  -0.983738772E-02   0.652749794E-02
 0.607360506E+01   0.402269510E-01   0.186698642E+01  -0.836927787E-02   0.506595876E-02
 0.610743164E+01   0.401252685E-01   0.186714687E+01  -0.701584875E-02   0.507491096E-02
 0.613836035E+01   0.400754603E-01   0.186729563E+01  -0.578367514E-02   0.489491485E-02
 0.616636096E+01   0.400609960E-01   0.186742765E+01  -0.466942535E-02   0.500192581E-02
 0.619140611E+01   0.400777849E-01   0.186754882E+01  -0.367313885E-02   0.501427976E-02
 0.621347135E+01   0.401127412E-01   0.186765502E+01  -0.279417046E-02   0.499881934E-02
 0.623253511E+01   0.401586421E-01   0.186774686E+01  -0.203317008E-02   0.500422770E-02
 0.624857876E+01   0.402086956E-01   0.186782434E+01  -0.139122803E-02   0.500975191E-02
 0.626158666E+01   0.402569885E-01   0.186788731E+01  -0.869349129E-03   0.501383532E-02
 0.627154613E+01   0.402986322E-01   0.186793560E+01  -0.468914283E-03   0.501640434E-02
 0.627844763E+01   0.403298643E-01   0.186796912E+01  -0.190992357E-03   0.501790577E-02
 0.628228595E+01   0.403480756E-01   0.186798777E+01  -0.362690743E-04   0.501864334E-02
 0.899353865E-03   0.603059957E-01   0.188794569E+01   0.542099938E-04  -0.482589480E-02
 0.473767679E-02   0.602878660E-01   0.188792690E+01   0.285511337E-03  -0.482680863E-02
 0.116391775E-01   0.602574924E-01   0.188789312E+01   0.701159568E-03  -0.482828263E-02
 0.215986473E-01   0.602187006E-01   0.188784436E+01   0.130042492E-02  -0.483002280E-02
 0.346065430E-01   0.601770016E-01   0.188778069E+01   0.208213424E-02  -0.483159856E-02
 0.506501997E-01   0.601395598E-01   0.188770215E+01   0.304477448E-02  -0.483272903E-02
 0.697139564E-01   0.601151616E-01   0.188760886E+01   0.418749420E-02  -0.483369032E-02
 0.917791922E-01   0.601141782E-01   0.188750089E+01   0.550947570E-02  -0.483565249E-02
 0.116824351E+00   0.601485231E-01   0.188737826E+01   0.701081403E-02  -0.484430897E-02
 0.144824962E+00   0.602310875E-01   0.188724027E+01   0.869246918E-02  -0.485785751E-02
 0.175753667E+00   0.603807297E-01   0.188709029E+01   0.105575630E-01  -0.477900323E-02
 0.209580248E+00   0.606116729E-01   0.188692510E+01   0.126102732E-01  -0.491650546E-02
 0.246271653E+00   0.609346657E-01   0.188673594E+01   0.148549988E-01  -0.438132541E-02
 0.285792031E+00   0.613691425E-01   0.188651975E+01   0.173006643E-01  -0.123401420E-01
 0.328102769E+00   0.614236546E-01   0.188578665E+01   0.197939600E-01  -0.168161492E-01
 0.373162524E+00   0.616183180E-01   0.188501742E+01   0.224636698E-01  -0.171559523E-01
 0.420927270E+00   0.619619590E-01   0.188419304E+01   0.253180928E-01  -0.173097827E-01
 0.471350337E+00   0.624780738E-01   0.188330493E+01   0.283706562E-01  -0.174962762E-01
 0.524382457E+00   0.631988671E-01   0.188234695E+01   0.316420313E-01  -0.176968515E-01
 0.579971813E+00   0.640525712E-01   0.188121876E+01   0.351000824E-01  -0.286182289E-01
 0.638064089E+00   0.646336957E-01   0.187955676E+01   0.384984899E-01  -0.283435645E-01
 0.698602525E+00   0.655046689E-01   0.187779927E+01   0.421293128E-01  -0.284548504E-01
 0.761527970E+00   0.665192317E-01   0.187578517E+01   0.459001287E-01  -0.346935230E-01
 0.826778940E+00   0.676594922E-01   0.187346170E+01   0.497810223E-01  -0.347423486E-01
 0.894291679E+00   0.687409071E-01   0.187067637E+01   0.536018576E-01  -0.451731898E-01
 0.964000221E+00   0.699022715E-01   0.186750009E+01   0.574236799E-01  -0.464271932E-01
 0.103583646E+01   0.708680627E-01   0.186376872E+01   0.609670234E-01  -0.545038405E-01
 0.110973019E+01   0.721693918E-01   0.185974809E+01   0.646333654E-01  -0.557580087E-01
 0.118560923E+01   0.736139462E-01   0.185529887E+01   0.682201157E-01  -0.674197357E-01
 0.126339943E+01   0.743822166E-01   0.185014601E+01   0.708955531E-01  -0.700028044E-01
 0.134302479E+01   0.750513932E-01   0.184458714E+01   0.731129028E-01  -0.780376367E-01
 0.142440750E+01   0.756321088E-01   0.183867127E+01   0.748232429E-01  -0.780462044E-01
 0.150746804E+01   0.757409939E-01   0.183243304E+01   0.755891670E-01  -0.824053432E-01
 0.159212526E+01   0.758253689E-01   0.182602347E+01   0.758081230E-01  -0.833212227E-01
 0.167829644E+01   0.754595068E-01   0.181954253E+01   0.750238048E-01  -0.830564686E-01
 0.176589739E+01   0.747025551E-01   0.181315749E+01   0.732853171E-01  -0.796668440E-01
 0.185484251E+01   0.740119903E-01   0.180689851E+01   0.710463051E-01  -0.752744244E-01
 0.194504489E+01   0.727971243E-01   0.180102717E+01   0.677583422E-01  -0.689165143E-01
 0.203641640E+01   0.711628455E-01   0.179568933E+01   0.635871208E-01  -0.595370721E-01
 0.212886777E+01   0.696244488E-01   0.179077016E+01   0.590609758E-01  -0.589702616E-01
 0.222230865E+01   0.683158435E-01   0.178621387E+01   0.543226752E-01  -0.510267530E-01
 0.231664774E+01   0.667954738E-01   0.178231260E+01   0.490620602E-01  -0.398706926E-01
 0.241179288E+01   0.653364975E-01   0.177894373E+01   0.435609676E-01  -0.388627379E-01
 0.250765110E+01   0.640478915E-01   0.177603641E+01   0.379371887E-01  -0.335829304E-01
 0.260412873E+01   0.629313969E-01   0.177358112E+01   0.322184423E-01  -0.202190842E-01
 0.270113151E+01   0.617385557E-01   0.177179379E+01   0.263226458E-01  -0.209752943E-01
 0.279856465E+01   0.611492867E-01   0.177005296E+01   0.205669790E-01  -0.206852113E-01
 0.289633297E+01   0.606627820E-01   0.176879223E+01   0.147291559E-01  -0.645464995E-02
 0.299434092E+01   0.600256887E-01   0.176826362E+01   0.880695908E-02  -0.606495524E-02
 0.309249275E+01   0.599539683E-01   0.176775800E+01   0.294277843E-02  -0.562867588E-02
 0.319069256E+01   0.599539821E-01   0.176775799E+01  -0.294277904E-02   0.562942352E-02
 0.328884439E+01   0.600256619E-01   0.176826364E+01  -0.880695521E-02   0.606565771E-02
 0.338685234E+01   0.606626967E-01   0.176879231E+01  -0.147291348E-01   0.645634643E-02
 0.348462065E+01   0.611492692E-01   0.177005297E+01  -0.205669731E-01   0.206855910E-01
 0.358205380E+01   0.617385003E-01   0.177179384E+01  -0.263226222E-01   0.209760096E-01
 0.367905658E+01   0.629312454E-01   0.177358125E+01  -0.322183650E-01   0.202169268E-01
 0.377553421E+01   0.640478430E-01   0.177603645E+01  -0.379371599E-01   0.335836369E-01
 0.387139242E+01   0.653363920E-01   0.177894381E+01  -0.435608973E-01   0.388630255E-01
 0.396653756E+01   0.667954358E-01   0.178231262E+01  -0.490620336E-01   0.398667061E-01
 0.406087666E+01   0.683190846E-01   0.178621188E+01  -0.543252359E-01   0.511408057E-01
 0.415431754E+01   0.696243702E-01   0.179077020E+01  -0.590609097E-01   0.589710526E-01
 0.424676890E+01   0.711627117E-01   0.179568939E+01  -0.635870013E-01   0.595382151E-01
 0.433814041E+01   0.727969815E-01   0.180102722E+01  -0.677582092E-01   0.689163214E-01
 0.442834280E+01   0.740119447E-01   0.180689852E+01  -0.710462614E-01   0.752743842E-01
 0.451728792E+01   0.747024985E-01   0.181315750E+01  -0.732852616E-01   0.796671219E-01
 0.460488886E+01   0.754594981E-01   0.181954253E+01  -0.750237961E-01   0.830563704E-01
 0.469106005E+01   0.758253478E-01   0.182602347E+01  -0.758081020E-01   0.833209780E-01
 0.477571727E+01   0.757409990E-01   0.183243304E+01  -0.755891721E-01   0.824054177E-01
 0.485877781E+01   0.756321493E-01   0.183867128E+01  -0.748232829E-01   0.780462745E-01
 0.494016052E+01   0.750514256E-01   0.184458715E+01  -0.731129343E-01   0.780376632E-01
 0.501978587E+01   0.743821987E-01   0.185014600E+01  -0.708955376E-01   0.700045336E-01
 0.509757607E+01   0.736106995E-01   0.185529768E+01  -0.682170966E-01   0.674491882E-01
 0.517345511E+01   0.721695032E-01   0.185974814E+01  -0.646334640E-01   0.557591016E-01
 0.524734885E+01   0.708681332E-01   0.186376875E+01  -0.609670840E-01   0.545036587E-01
 0.531918509E+01   0.699023979E-01   0.186750016E+01  -0.574237836E-01   0.464282052E-01
 0.538889363E+01   0.687410101E-01   0.187067643E+01  -0.536019375E-01   0.451737770E-01
 0.545640637E+01   0.676596112E-01   0.187346178E+01  -0.497811095E-01   0.347440155E-01
 0.552165734E+01   0.665193392E-01   0.187578525E+01  -0.459002029E-01   0.346936408E-01
 0.558458278E+01   0.655047288E-01   0.187779932E+01  -0.421293516E-01   0.284546732E-01
 0.564512122E+01   0.646337985E-01   0.187955684E+01  -0.384985513E-01   0.283428258E-01
 0.570321349E+01   0.640526553E-01   0.188121883E+01  -0.351001283E-01   0.286191134E-01
 0.575880285E+01   0.631989396E-01   0.188234701E+01  -0.316420676E-01   0.176965066E-01
 0.581183497E+01   0.624781196E-01   0.188330497E+01  -0.283706770E-01   0.174960579E-01
 0.586225804E+01   0.619619837E-01   0.188419306E+01  -0.253181031E-01   0.173095641E-01
 0.591002278E+01   0.616183747E-01   0.188501747E+01  -0.224636905E-01   0.171559976E-01
 0.595508254E+01   0.614236803E-01   0.188578668E+01  -0.197939683E-01   0.168157438E-01
 0.599739328E+01   0.613691791E-01   0.188651978E+01  -0.173006747E-01   0.123406733E-01
 0.603691365E+01   0.609347292E-01   0.188673601E+01  -0.148550144E-01   0.438097600E-02
 0.607360506E+01   0.606116934E-01   0.188692512E+01  -0.126102775E-01   0.491601359E-02
 0.610743164E+01   0.603807552E-01   0.188709032E+01  -0.105575673E-01   0.477979272E-02
 0.613836035E+01   0.602311287E-01   0.188724031E+01  -0.869247529E-02   0.485743632E-02
 0.616636096E+01   0.601485414E-01   0.188737828E+01  -0.701081614E-02   0.484393075E-02
 0.619140611E+01   0.601141842E-01   0.188750090E+01  -0.550947623E-02   0.483543200E-02
 0.621347135E+01   0.601151587E-01   0.188760885E+01  -0.418749376E-02   0.483318772E-02
 0.623253511E+01   0.601395288E-01   0.188770212E+01  -0.304477361E-02   0.483146393E-02
 0.624857876E+01   0.601769637E-01   0.188778065E+01  -0.208213333E-02   0.483308618E-02
 0.626158666E+01   0.602187277E-01   0.188784439E+01  -0.130042419E-02   0.483450302E-02
 0.627154613E+01   0.602576135E-01   0.188789324E+01  -0.701159112E-03   0.483504367E-02
 0.627844763E+01   0.602880746E-01   0.188792711E+01  -0.285511132E-03   0.483514455E-02
 0.628228595E+01   0.603062610E-01   0.188794595E+01  -0.542099530E-04   0.483510452E-02
 0.899353865E-03   0.848998393E-01   0.191253952E+01   0.763186972E-04  -0.466285001E-02
 0.473767679E-02   0.848815785E-01   0.191252034E+01   0.401986024E-03  -0.466660502E-02
 0.116391775E-01   0.848518046E-01   0.191248576E+01   0.987345688E-03  -0.467319999E-02
 0.215986473E-01   0.848157713E-01   0.191243570E+01   0.183160235E-02  -0.468235829E-02
 0.346065430E-01   0.847810429E-01   0.191237000E+01   0.293343810E-02  -0.469367279E-02
 0.506501997E-01   0.847574262E-01   0.191228845E+01   0.429115205E-02  -0.471357647E-02
 0.697139564E-01   0.847559820E-01   0.191218982E+01   0.590390738E-02  -0.476524326E-02
 0.917791922E-01   0.847910960E-01   0.191207395E+01   0.777111226E-02  -0.474671150E-02
 0.116824351E+00   0.848844259E-01   0.191194556E+01   0.989403224E-02  -0.473868644E-02
 0.144824962E+00   0.850488755E-01   0.191179827E+01   0.122739887E-01  -0.478994352E-02
 0.175753667E+00   0.853318012E-01   0.191165692E+01   0.149206972E-01  -0.436583090E-02
 0.209580248E+00   0.855980120E-01   0.191136470E+01   0.178086173E-01  -0.111334427E-01
 0.246271653E+00   0.857767701E-01   0.191082847E+01   0.209114065E-01  -0.145287764E-01
 0.285792031E+00   0.860685392E-01   0.191021719E+01   0.242642326E-01  -0.142022240E-01
 0.328102769E+00   0.865335936E-01   0.190955720E+01   0.278852684E-01  -0.143685153E-01
 0.373162524E+00   0.872069349E-01   0.190884503E+01   0.317922749E-01  -0.146653629E-01
 0.420927270E+00   0.879565316E-01   0.190791884E+01   0.359389970E-01  -0.240636652E-01
 0.471350337E+00   0.886122993E-01   0.190658937E+01   0.402379390E-01  -0.244965491E-01
 0.524382457E+00   0.894559343E-01   0.190507578E+01   0.447886398E-01  -0.278054954E-01
 0.579971813E+00   0.905838964E-01   0.190341076E+01   0.496405964E-01  -0.266917312E-01
 0.638064089E+00   0.916510391E-01   0.190125835E+01   0.545912945E-01  -0.377490901E-01
 0.698602525E+00   0.928834004E-01   0.189876441E+01   0.597377768E-01  -0.386614662E-01
 0.761527970E+00   0.945236259E-01   0.189605440E+01   0.652237865E-01  -0.435848412E-01
 0.826778940E+00   0.960357506E-01   0.189268009E+01   0.706584144E-01  -0.541303909E-01
 0.894291679E+00   0.975809293E-01   0.188873223E+01   0.760903563E-01  -0.552741171E-01
 0.964000221E+00   0.993921602E-01   0.188431731E+01   0.816483715E-01  -0.652756525E-01
 0.103583646E+01   0.101303234E+00   0.187928479E+01   0.871500530E-01  -0.709737838E-01
 0.110973019E+01   0.102859932E+00   0.187340218E+01   0.921192822E-01  -0.825162188E-01
 0.118560923E+01   0.104642522E+00   0.186695681E+01   0.969753889E-01  -0.875675702E-01
 0.126339943E+01   0.106213382E+00   0.185977708E+01   0.101234711E+00  -0.933002954E-01
 0.134302479E+01   0.107412178E+00   0.185189446E+01   0.104637892E+00  -0.105645239E+00
 0.142440750E+01   0.108195378E+00   0.184342185E+01   0.107038158E+00  -0.112567758E+00
 0.150746804E+01   0.108636490E+00   0.183451490E+01   0.108418719E+00  -0.116851604E+00
 0.159212526E+01   0.108668996E+00   0.182532294E+01   0.108644276E+00  -0.118217571E+00
 0.167829644E+01   0.108252858E+00   0.181602604E+01   0.107628074E+00  -0.116343299E+00
 0.176589739E+01   0.107424864E+00   0.180681438E+01   0.105386947E+00  -0.113070402E+00
 0.185484251E+01   0.106165593E+00   0.179788781E+01   0.101911519E+00  -0.105550445E+00
 0.194504489E+01   0.104247638E+00   0.178952943E+01   0.970318246E-01  -0.998942849E-01
 0.203641640E+01   0.102275046E+00   0.178172075E+01   0.913872666E-01  -0.936610704E-01
 0.212886777E+01   0.100399091E+00   0.177447311E+01   0.851662232E-01  -0.800504400E-01
 0.222230865E+01   0.981715483E-01   0.176810954E+01   0.780628348E-01  -0.711914247E-01
 0.231664774E+01   0.962063611E-01   0.176235420E+01   0.706644407E-01  -0.676013726E-01
 0.241179288E+01   0.941377152E-01   0.175747825E+01   0.627636390E-01  -0.504170665E-01
 0.250765110E+01   0.923480295E-01   0.175323516E+01   0.547002704E-01  -0.506501613E-01
 0.260412873E+01   0.907683217E-01   0.174966881E+01   0.464696138E-01  -0.370797822E-01
 0.270113151E+01   0.893660638E-01   0.174680319E+01   0.381018342E-01  -0.336287151E-01
 0.279856465E+01   0.881736511E-01   0.174460300E+01   0.296563041E-01  -0.201709598E-01
 0.289633297E+01   0.873478416E-01   0.174290580E+01   0.212087015E-01  -0.205499698E-01
 0.299434092E+01   0.867698472E-01   0.174180884E+01   0.127306375E-01  -0.675114509E-02
 0.309249275E+01   0.865007636E-01   0.174124320E+01   0.424572180E-02  -0.635531205E-02
 0.319069256E+01   0.865007660E-01   0.174124320E+01  -0.424572190E-02   0.635555469E-02
 0.328884439E+01   0.867698364E-01   0.174180885E+01  -0.127306359E-01   0.675138443E-02
 0.338685234E+01   0.873478387E-01   0.174290580E+01  -0.212087008E-01   0.205500854E-01
 0.348462065E+01   0.881736354E-01   0.174460301E+01  -0.296562988E-01   0.201711532E-01
 0.358205380E+01   0.893660044E-01   0.174680325E+01  -0.381018089E-01   0.336271231E-01
 0.367905658E+01   0.907682935E-01   0.174966883E+01  -0.464695993E-01   0.370802475E-01
 0.377553421E+01   0.923479926E-01   0.175323519E+01  -0.547002498E-01   0.506466225E-01
 0.387139242E+01   0.941410317E-01   0.175747576E+01  -0.627658318E-01   0.505354128E-01
 0.396653756E+01   0.962063224E-01   0.176235423E+01  -0.706644132E-01   0.676019077E-01
 0.406087666E+01   0.981714894E-01   0.176810957E+01  -0.780627880E-01   0.711911669E-01
 0.415431754E+01   0.100399031E+00   0.177447314E+01  -0.851661720E-01   0.800510116E-01
 0.424676890E+01   0.102275020E+00   0.178172076E+01  -0.913872432E-01   0.936612791E-01
 0.433814041E+01   0.104247530E+00   0.178952947E+01  -0.970317243E-01   0.998932729E-01
 0.442834280E+01   0.106165543E+00   0.179788782E+01  -0.101911471E+00   0.105550797E+00
 0.451728792E+01   0.107424829E+00   0.180681439E+01  -0.105386912E+00   0.113070024E+00
 0.460488886E+01   0.108252819E+00   0.181602604E+01  -0.107628035E+00   0.116342729E+00
 0.469106005E+01   0.108668972E+00   0.182532294E+01  -0.108644252E+00   0.118217281E+00
 0.477571727E+01   0.108636492E+00   0.183451490E+01  -0.108418721E+00   0.116851621E+00
 0.485877781E+01   0.108195411E+00   0.184342186E+01  -0.107038190E+00   0.112567884E+00
 0.494016052E+01   0.107412212E+00   0.185189446E+01  -0.104637925E+00   0.105645260E+00
 0.501978587E+01   0.106213428E+00   0.185977709E+01  -0.101234754E+00   0.933002707E-01
 0.509757607E+01   0.104642631E+00   0.186695685E+01  -0.969754903E-01   0.875672773E-01
 0.517345511E+01   0.102859951E+00   0.187340218E+01  -0.921192992E-01   0.825162066E-01
 0.524734885E+01   0.101303272E+00   0.187928481E+01  -0.871500859E-01   0.709737333E-01
 0.531918509E+01   0.993922533E-01   0.188431736E+01  -0.816484474E-01   0.652776808E-01
 0.538889363E+01   0.975809883E-01   0.188873226E+01  -0.760904015E-01   0.552756706E-01
 0.545640637E+01   0.960358547E-01   0.189268017E+01  -0.706584903E-01   0.541308527E-01
 0.552165734E+01   0.945239840E-01   0.189605466E+01  -0.652240319E-01   0.435873240E-01
 0.558458278E+01   0.928833895E-01   0.189876440E+01  -0.597377696E-01   0.386622933E-01
 0.564512122E+01   0.916511377E-01   0.190125843E+01  -0.545913535E-01   0.377482944E-01
 0.570321349E+01   0.905839450E-01   0.190341080E+01  -0.496406234E-01   0.266915367E-01
 0.575880285E+01   0.894559149E-01   0.190507576E+01  -0.447886322E-01   0.278033077E-01
 0.581183497E+01   0.886131678E-01   0.190659014E+01  -0.402383333E-01   0.244965296E-01
 0.586225804E+01   0.879564678E-01   0.190791878E+01  -0.359389681E-01   0.240658892E-01
 0.591002278E+01   0.872069331E-01   0.190884503E+01  -0.317922741E-01   0.146652480E-01
 0.595508254E+01   0.865335939E-01   0.190955720E+01  -0.278852685E-01   0.143685027E-01
 0.599739328E+01   0.860685393E-01   0.191021719E+01  -0.242642326E-01   0.142022048E-01
 0.603691365E+01   0.857767726E-01   0.191082847E+01  -0.209114070E-01   0.145290119E-01
 0.607360506E+01   0.855979757E-01   0.191136466E+01  -0.178086105E-01   0.111316298E-01
 0.610743164E+01   0.853317212E-01   0.191165684E+01  -0.149206822E-01   0.436764598E-02
 0.613836035E+01   0.850488892E-01   0.191179829E+01  -0.122739912E-01   0.478986881E-02
 0.616636096E+01   0.848844219E-01   0.191194555E+01  -0.989403185E-02   0.473854854E-02
 0.619140611E+01   0.847910985E-01   0.191207395E+01  -0.777111225E-02   0.474714988E-02
 0.621347135E+01   0.847560047E-01   0.191218985E+01  -0.590390699E-02   0.476437047E-02
 0.623253511E+01   0.847573190E-01   0.191228834E+01  -0.429115261E-02   0.470907890E-02
 0.624857876E+01   0.847809942E-01   0.191236995E+01  -0.293343995E-02   0.470521185E-02
 0.626158666E+01   0.848163922E-01   0.191243632E+01  -0.183160428E-02   0.471118215E-02
 0.627154613E+01   0.848533266E-01   0.191248729E+01  -0.987347045E-03   0.471520157E-02
 0.627844763E+01   0.848839224E-01   0.191252268E+01  -0.401986666E-03   0.471770758E-02
 0.628228595E+01   0.849027104E-01   0.191254239E+01  -0.763188285E-04   0.471900284E-02
 0.899353865E-03   0.103973101E+00   0.193161277E+01   0.934633617E-04  -0.425256288E-02
 0.473767679E-02   0.103955170E+00   0.193159372E+01   0.492312576E-03  -0.425379883E-02
 0.116391775E-01   0.103926769E+00   0.193155944E+01   0.120930076E-02  -0.425586722E-02
 0.215986473E-01   0.103894490E+00   0.193150997E+01   0.224360804E-02  -0.425850126E-02
 0.346065430E-01   0.103867815E+00   0.193144534E+01   0.359384204E-02  -0.426131288E-02
 0.506501997E-01   0.103859085E+00   0.193136562E+01   0.525821538E-02  -0.425951270E-02
 0.697139564E-01   0.103883815E+00   0.193127119E+01   0.723634254E-02  -0.423787161E-02
 0.917791922E-01   0.103959348E+00   0.193116153E+01   0.952791337E-02  -0.433572275E-02
 0.116824351E+00   0.104103125E+00   0.193103330E+01   0.121338932E-01  -0.417322826E-02
 0.144824962E+00   0.104368136E+00   0.193091516E+01   0.150629026E-01  -0.398486634E-02
 0.175753667E+00   0.104594734E+00   0.193062322E+01   0.182881042E-01  -0.116032587E-01
 0.209580248E+00   0.104786370E+00   0.193013321E+01   0.218006622E-01  -0.129763396E-01
 0.246271653E+00   0.105113275E+00   0.192958153E+01   0.256255335E-01  -0.128859775E-01
 0.285792031E+00   0.105628729E+00   0.192898397E+01   0.297786623E-01  -0.125881563E-01
 0.328102769E+00   0.106316379E+00   0.192828471E+01   0.342601030E-01  -0.172441192E-01
 0.373162524E+00   0.106932358E+00   0.192721293E+01   0.389833914E-01  -0.218299700E-01
 0.420927270E+00   0.107754170E+00   0.192598807E+01   0.440290756E-01  -0.226662409E-01
 0.471350337E+00   0.108807063E+00   0.192458201E+01   0.494081762E-01  -0.260062956E-01
 0.524382457E+00   0.109858389E+00   0.192273697E+01   0.550034552E-01  -0.346210803E-01
 0.579971813E+00   0.111062002E+00   0.192054065E+01   0.608620053E-01  -0.345612146E-01
 0.638064089E+00   0.112712557E+00   0.191817593E+01   0.671364946E-01  -0.360184535E-01
 0.698602525E+00   0.114335703E+00   0.191519132E+01   0.735347954E-01  -0.487623373E-01
 0.761527970E+00   0.116055945E+00   0.191163897E+01   0.800818581E-01  -0.506471630E-01
 0.826778940E+00   0.118296537E+00   0.190775622E+01   0.870368185E-01  -0.579340612E-01
 0.894291679E+00   0.120191508E+00   0.190288800E+01   0.937213578E-01  -0.676239018E-01
 0.964000221E+00   0.122648567E+00   0.189757789E+01   0.100753802E+00  -0.704010487E-01
 0.103583646E+01   0.124771315E+00   0.189124897E+01   0.107339388E+00  -0.858847765E-01
 0.110973019E+01   0.127038873E+00   0.188416004E+01   0.113773125E+00  -0.968829783E-01
 0.118560923E+01   0.129404455E+00   0.187626040E+01   0.119923073E+00  -0.105272022E+00
 0.126339943E+01   0.131179085E+00   0.186733213E+01   0.125029828E+00  -0.117769819E+00
 0.134302479E+01   0.132751385E+00   0.185761498E+01   0.129322908E+00  -0.125370277E+00