 TITLE="poloidal viscosity for solution of GS equation with flow"
 Variables ="theta", "r", "R [m] ","z [m]", "viscosity"
 ZONE I=         100,J=          44,F=Point
 0.899353865E-03   0.389876157E-01   0.180771674E+01   0.350508577E-04  -0.704106550E-02
 0.473767679E-02   0.389628474E-01   0.180769154E+01   0.184538695E-03  -0.706113866E-02
 0.116391775E-01   0.389195491E-01   0.180764603E+01   0.452899233E-03  -0.709712828E-02
 0.215986473E-01   0.388598669E-01   0.180757993E+01   0.839201328E-03  -0.714881893E-02
 0.346065430E-01   0.387869002E-01   0.180749282E+01   0.134202599E-02  -0.721586314E-02
 0.506501997E-01   0.387047584E-01   0.180738427E+01   0.195954061E-02  -0.725799849E-02
 0.697139564E-01   0.386214003E-01   0.180725673E+01   0.269029778E-02  -0.713753009E-02
 0.917791922E-01   0.385451098E-01   0.180711202E+01   0.353266855E-02  -0.708997244E-02
 0.116824351E+00   0.384811623E-01   0.180694801E+01   0.448529695E-02  -0.709985261E-02
 0.144824962E+00   0.384382277E-01   0.180676497E+01   0.554736150E-02  -0.709285660E-02
 0.175753667E+00   0.384258178E-01   0.180656302E+01   0.671874902E-02  -0.709776495E-02
 0.209580248E+00   0.384543174E-01   0.180634202E+01   0.800038268E-02  -0.711051684E-02
 0.246271653E+00   0.385345681E-01   0.180610106E+01   0.939431239E-02  -0.709770294E-02
 0.285792031E+00   0.386844957E-01   0.180584454E+01   0.109058379E-01  -0.711732593E-02
 0.328102769E+00   0.389086778E-01   0.180556225E+01   0.125382287E-01  -0.721938720E-02
 0.373162524E+00   0.392287304E-01   0.180525811E+01   0.143013354E-01  -0.737843271E-02
 0.420927270E+00   0.396777015E-01   0.180494310E+01   0.162131995E-01  -0.559752124E-02
 0.471350337E+00   0.399020884E-01   0.180428014E+01   0.181191334E-01  -0.197269996E-01
 0.524382457E+00   0.399464837E-01   0.180330816E+01   0.200003312E-01  -0.198603359E-01
 0.579971813E+00   0.401172294E-01   0.180228633E+01   0.219842522E-01  -0.200240328E-01
 0.638064089E+00   0.404346595E-01   0.180120829E+01   0.240845668E-01  -0.201863419E-01
 0.698602525E+00   0.409130827E-01   0.180005797E+01   0.263131972E-01  -0.204526615E-01
 0.761527970E+00   0.415877727E-01   0.179882950E+01   0.286968684E-01  -0.202572307E-01
 0.826778940E+00   0.422810018E-01   0.179736388E+01   0.311084328E-01  -0.267808079E-01
 0.894291679E+00   0.430182838E-01   0.179566110E+01   0.335446150E-01  -0.259319008E-01
 0.964000221E+00   0.434571811E-01   0.179351011E+01   0.356991750E-01  -0.362195720E-01
 0.103583646E+01   0.438964055E-01   0.179110782E+01   0.377635997E-01  -0.365415176E-01
 0.110973019E+01   0.445741412E-01   0.178856044E+01   0.399195766E-01  -0.397028564E-01
 0.118560923E+01   0.449122669E-01   0.178560412E+01   0.416214767E-01  -0.436899521E-01
 0.126339943E+01   0.454509587E-01   0.178248159E+01   0.433204253E-01  -0.442493173E-01
 0.134302479E+01   0.463382233E-01   0.177919201E+01   0.451415515E-01  -0.457896345E-01
 0.142440750E+01   0.466556825E-01   0.177553461E+01   0.461566698E-01  -0.509890769E-01
 0.150746804E+01   0.471306762E-01   0.177171185E+01   0.470362002E-01  -0.514726626E-01
 0.159212526E+01   0.476675140E-01   0.176771337E+01   0.476566734E-01  -0.536721955E-01
 0.167829644E+01   0.475656983E-01   0.176362560E+01   0.472911161E-01  -0.535904675E-01
 0.176589739E+01   0.478259281E-01   0.175945745E+01   0.469185916E-01  -0.534376482E-01
 0.185484251E+01   0.473978967E-01   0.175544627E+01   0.454986361E-01  -0.502422343E-01
 0.194504489E+01   0.471627707E-01   0.175148773E+01   0.438982988E-01  -0.500098567E-01
 0.203641640E+01   0.469003283E-01   0.174767216E+01   0.419075589E-01  -0.432689691E-01
 0.212886777E+01   0.463915782E-01   0.174416245E+01   0.393529672E-01  -0.432387810E-01
 0.222230865E+01   0.462747907E-01   0.174066867E+01   0.367962845E-01  -0.433875538E-01
 0.231664774E+01   0.459094061E-01   0.173757522E+01   0.337209903E-01  -0.277732397E-01
 0.241179288E+01   0.447927926E-01   0.173534474E+01   0.298642871E-01  -0.258841628E-01
 0.250765110E+01   0.440901029E-01   0.173320580E+01   0.261156816E-01  -0.255051146E-01
 0.260412873E+01   0.437962557E-01   0.173110773E+01   0.224218925E-01  -0.252819536E-01
 0.270113151E+01   0.438140517E-01   0.172909693E+01   0.186804366E-01  -0.220064637E-01
 0.279856465E+01   0.431911530E-01   0.172805428E+01   0.145269213E-01  -0.731836428E-02
 0.289633297E+01   0.425632706E-01   0.172743960E+01   0.103346955E-01  -0.720082632E-02
 0.299434092E+01   0.423487854E-01   0.172683865E+01   0.621341514E-02  -0.697525875E-02
 0.309249275E+01   0.425351144E-01   0.172624529E+01   0.208792455E-02  -0.665480502E-02
 0.319069256E+01   0.425352004E-01   0.172624521E+01  -0.208792848E-02   0.665707778E-02
 0.328884439E+01   0.423487852E-01   0.172683865E+01  -0.621341509E-02   0.697620768E-02
 0.338685234E+01   0.425632192E-01   0.172743965E+01  -0.103346830E-01   0.720152651E-02
 0.348462065E+01   0.431910107E-01   0.172805441E+01  -0.145268735E-01   0.731968369E-02
 0.358205380E+01   0.438140481E-01   0.172909693E+01  -0.186804350E-01   0.220054376E-01
 0.367905658E+01   0.437962397E-01   0.173110774E+01  -0.224218843E-01   0.252829322E-01
 0.377553421E+01   0.440900115E-01   0.173320587E+01  -0.261156274E-01   0.255063623E-01
 0.387139242E+01   0.447926850E-01   0.173534483E+01  -0.298642170E-01   0.258807464E-01
 0.396653756E+01   0.459126897E-01   0.173757297E+01  -0.337233830E-01   0.278839587E-01
 0.406087666E+01   0.462747882E-01   0.174066867E+01  -0.367962834E-01   0.433883474E-01
 0.415431754E+01   0.463915219E-01   0.174416248E+01  -0.393529195E-01   0.432385463E-01
 0.424676890E+01   0.469002417E-01   0.174767220E+01  -0.419074815E-01   0.432691846E-01
 0.433814041E+01   0.471627634E-01   0.175148773E+01  -0.438982920E-01   0.500100070E-01
 0.442834280E+01   0.473978231E-01   0.175544629E+01  -0.454985654E-01   0.502428337E-01
 0.451728792E+01   0.478259384E-01   0.175945745E+01  -0.469186017E-01   0.534369744E-01
 0.460488886E+01   0.475657158E-01   0.176362560E+01  -0.472911335E-01   0.535906665E-01
 0.469106005E+01   0.476674923E-01   0.176771337E+01  -0.476566516E-01   0.536712676E-01
 0.477571727E+01   0.471307930E-01   0.177171185E+01  -0.470363168E-01   0.514726981E-01
 0.485877781E+01   0.466557451E-01   0.177553462E+01  -0.461567314E-01   0.509890491E-01
 0.494016052E+01   0.463374488E-01   0.177919182E+01  -0.451408020E-01   0.457419846E-01
 0.501978587E+01   0.454512472E-01   0.178248167E+01  -0.433207022E-01   0.442422461E-01
 0.509757607E+01   0.449123396E-01   0.178560415E+01  -0.416215440E-01   0.436896582E-01
 0.517345511E+01   0.445742245E-01   0.178856047E+01  -0.399196513E-01   0.397033102E-01
 0.524734885E+01   0.438965252E-01   0.179110788E+01  -0.377637027E-01   0.365409702E-01
 0.531918509E+01   0.434572586E-01   0.179351015E+01  -0.356992389E-01   0.362186189E-01
 0.538889363E+01   0.430184782E-01   0.179566123E+01  -0.335447662E-01   0.259351245E-01
 0.545640637E+01   0.422811669E-01   0.179736399E+01  -0.311085543E-01   0.267806626E-01
 0.552165734E+01   0.415880056E-01   0.179882967E+01  -0.286970291E-01   0.202575558E-01
 0.558458278E+01   0.409131365E-01   0.180005801E+01  -0.263132358E-01   0.204559433E-01
 0.564512122E+01   0.404314811E-01   0.180120572E+01  -0.240826992E-01   0.200918859E-01
 0.570321349E+01   0.401176587E-01   0.180228668E+01  -0.219845013E-01   0.199994763E-01
 0.575880285E+01   0.399465348E-01   0.180330820E+01  -0.200003579E-01   0.198600680E-01
 0.581183497E+01   0.399020986E-01   0.180428015E+01  -0.181191381E-01   0.197282469E-01
 0.586225804E+01   0.396778577E-01   0.180494325E+01  -0.162132632E-01   0.559894750E-02
 0.591002278E+01   0.392288604E-01   0.180525823E+01  -0.143013828E-01   0.737750634E-02
 0.595508254E+01   0.389087614E-01   0.180556233E+01  -0.125382556E-01   0.721843296E-02
 0.599739328E+01   0.386845480E-01   0.180584459E+01  -0.109058527E-01   0.711727962E-02
 0.603691365E+01   0.385346303E-01   0.180610112E+01  -0.939432763E-02   0.709729131E-02
 0.607360506E+01   0.384543460E-01   0.180634205E+01  -0.800038858E-02   0.710984313E-02
 0.610743164E+01   0.384258217E-01   0.180656302E+01  -0.671874971E-02   0.709710116E-02
 0.613836035E+01   0.384382083E-01   0.180676495E+01  -0.554735866E-02   0.709220619E-02
 0.616636096E+01   0.384811201E-01   0.180694797E+01  -0.448529214E-02   0.709905348E-02
 0.619140611E+01   0.385450488E-01   0.180711196E+01  -0.353266285E-02   0.708961660E-02
 0.621347135E+01   0.386213287E-01   0.180725666E+01  -0.269029190E-02   0.713595862E-02
 0.623253511E+01   0.387046154E-01   0.180738412E+01  -0.195953614E-02   0.725308143E-02
 0.624857876E+01   0.387867804E-01   0.180749270E+01  -0.134202350E-02   0.722746707E-02
 0.626158666E+01   0.388600576E-01   0.180758012E+01  -0.839200074E-03   0.717810441E-02
 0.627154613E+01   0.389201596E-01   0.180764664E+01  -0.452898682E-03   0.713986580E-02
 0.627844763E+01   0.389638413E-01   0.180769253E+01  -0.184538506E-03   0.711315418E-02
 0.628228595E+01   0.389888557E-01   0.180771798E+01  -0.350508255E-04   0.709822555E-02
 0.899353865E-03   0.597475282E-01   0.182847664E+01   0.537076970E-04  -0.590711990E-02
 0.473767679E-02   0.597263721E-01   0.182845483E+01   0.282851001E-03  -0.590688972E-02
 0.116391775E-01   0.596905498E-01   0.182841563E+01   0.694560673E-03  -0.590626768E-02
 0.215986473E-01   0.596438792E-01   0.182835910E+01   0.128801026E-02  -0.590489347E-02
 0.346065430E-01   0.595918618E-01   0.182828533E+01   0.206188873E-02  -0.590223958E-02
 0.506501997E-01   0.595416457E-01   0.182819443E+01   0.301450368E-02  -0.589951101E-02
 0.697139564E-01   0.595018578E-01   0.182808647E+01   0.414477278E-02  -0.590235637E-02
 0.917791922E-01   0.594827049E-01   0.182796150E+01   0.545160152E-02  -0.589705686E-02
 0.116824351E+00   0.594959270E-01   0.182781954E+01   0.693474090E-02  -0.592729810E-02
 0.144824962E+00   0.595525753E-01   0.182765827E+01   0.859461442E-02  -0.618839343E-02
 0.175753667E+00   0.596507447E-01   0.182746099E+01   0.104298645E-01  -0.713811301E-02
 0.209580248E+00   0.598155417E-01   0.182723581E+01   0.124446425E-01  -0.700937216E-02
 0.246271653E+00   0.600693776E-01   0.182698618E+01   0.146440905E-01  -0.657557827E-02
 0.285792031E+00   0.604266505E-01   0.182670489E+01   0.170350380E-01  -0.137425775E-01
 0.328102769E+00   0.604407103E-01   0.182594564E+01   0.194769870E-01  -0.202488892E-01
 0.373162524E+00   0.605182524E-01   0.182508248E+01   0.220626456E-01  -0.202413224E-01
 0.420927270E+00   0.607355871E-01   0.182416314E+01   0.248170045E-01  -0.203447104E-01
 0.471350337E+00   0.611172003E-01   0.182318187E+01   0.277526972E-01  -0.204921991E-01
 0.524382457E+00   0.616902748E-01   0.182213039E+01   0.308868702E-01  -0.206776113E-01
 0.579971813E+00   0.624413396E-01   0.182095994E+01   0.342178630E-01  -0.258965451E-01
 0.638064089E+00   0.628955260E-01   0.181924990E+01   0.374633207E-01  -0.320532074E-01
 0.698602525E+00   0.634549902E-01   0.181731941E+01   0.408107883E-01  -0.369444279E-01
 0.761527970E+00   0.640132142E-01   0.181506078E+01   0.441709208E-01  -0.380314824E-01
 0.826778940E+00   0.648775014E-01   0.181266740E+01   0.477338308E-01  -0.387223908E-01
 0.894291679E+00   0.660340761E-01   0.181007135E+01   0.514909667E-01  -0.438466072E-01
 0.964000221E+00   0.667668209E-01   0.180680245E+01   0.548473510E-01  -0.555340207E-01
 0.103583646E+01   0.674128555E-01   0.180309666E+01   0.579945407E-01  -0.551519051E-01
 0.110973019E+01   0.684725724E-01   0.179919236E+01   0.613227768E-01  -0.554179996E-01
 0.118560923E+01   0.693728517E-01   0.179479473E+01   0.642898108E-01  -0.637613793E-01
 0.126339943E+01   0.705600866E-01   0.179007863E+01   0.672526760E-01  -0.638281191E-01
 0.134302479E+01   0.713680525E-01   0.178484460E+01   0.695247584E-01  -0.744975970E-01
 0.142440750E+01   0.720658438E-01   0.177924099E+01   0.712950518E-01  -0.760141127E-01
 0.150746804E+01   0.724346322E-01   0.177331323E+01   0.722894330E-01  -0.792102894E-01
 0.159212526E+01   0.729262473E-01   0.176717458E+01   0.729096647E-01  -0.815951123E-01
 0.167829644E+01   0.731139563E-01   0.176088388E+01   0.726918246E-01  -0.814503271E-01
 0.176589739E+01   0.730690215E-01   0.175456353E+01   0.716827572E-01  -0.805652138E-01
 0.185484251E+01   0.731061231E-01   0.174824181E+01   0.701767385E-01  -0.783779941E-01
 0.194504489E+01   0.725663508E-01   0.174220097E+01   0.675435475E-01  -0.737661806E-01
 0.203641640E+01   0.717157656E-01   0.173653049E+01   0.640811734E-01  -0.661634651E-01
 0.212886777E+01   0.709049517E-01   0.173118135E+01   0.601471130E-01  -0.656387656E-01
 0.222230865E+01   0.700942376E-01   0.172622466E+01   0.557366189E-01  -0.583957378E-01
 0.231664774E+01   0.694633473E-01   0.172159152E+01   0.510215634E-01  -0.512191766E-01
 0.241179288E+01   0.682161575E-01   0.171788713E+01   0.454811301E-01  -0.406967353E-01
 0.250765110E+01   0.672552665E-01   0.171454166E+01   0.398370082E-01  -0.400072847E-01
 0.260412873E+01   0.668513074E-01   0.171130304E+01   0.342248294E-01  -0.334116733E-01
 0.270113151E+01   0.657949704E-01   0.170921397E+01   0.280521360E-01  -0.218281638E-01
 0.279856465E+01   0.651461432E-01   0.170737838E+01   0.219112731E-01  -0.218082136E-01
 0.289633297E+01   0.648462201E-01   0.170582353E+01   0.157453956E-01  -0.886540194E-02
 0.299434092E+01   0.642163037E-01   0.170520777E+01   0.942178548E-02  -0.748920863E-02
 0.309249275E+01   0.642137087E-01   0.170459282E+01   0.315189925E-02  -0.698145004E-02
 0.319069256E+01   0.642137294E-01   0.170459280E+01  -0.315190018E-02   0.698232189E-02
 0.328884439E+01   0.642162854E-01   0.170520779E+01  -0.942178279E-02   0.748975519E-02
 0.338685234E+01   0.648461683E-01   0.170582358E+01  -0.157453830E-01   0.886475997E-02
 0.348462065E+01   0.651461303E-01   0.170737839E+01  -0.219112687E-01   0.218086711E-01
 0.358205380E+01   0.657949038E-01   0.170921403E+01  -0.280521077E-01   0.218285723E-01
 0.367905658E+01   0.668512781E-01   0.171130306E+01  -0.342248142E-01   0.334104304E-01
 0.377553421E+01   0.672552095E-01   0.171454171E+01  -0.398369745E-01   0.400063980E-01
 0.387139242E+01   0.682160801E-01   0.171788719E+01  -0.454810786E-01   0.406974341E-01
 0.396653756E+01   0.694632780E-01   0.172159157E+01  -0.510215125E-01   0.512177377E-01
 0.406087666E+01   0.700941982E-01   0.172622469E+01  -0.557365876E-01   0.583962843E-01
 0.415431754E+01   0.709049124E-01   0.173118137E+01  -0.601470796E-01   0.656393217E-01
 0.424676890E+01   0.717156040E-01   0.173653056E+01  -0.640810262E-01   0.661827106E-01
 0.433814041E+01   0.725660964E-01   0.174220107E+01  -0.675433136E-01   0.738189599E-01
 0.442834280E+01   0.731060931E-01   0.174824182E+01  -0.701767098E-01   0.783769333E-01
 0.451728792E+01   0.730690175E-01   0.175456353E+01  -0.716827532E-01   0.805653232E-01
 0.460488886E+01   0.731139739E-01   0.176088388E+01  -0.726918422E-01   0.814502659E-01
 0.469106005E+01   0.729262496E-01   0.176717458E+01  -0.729096670E-01   0.815949506E-01
 0.477571727E+01   0.724346527E-01   0.177331323E+01  -0.722894534E-01   0.792103569E-01
 0.485877781E+01   0.720658882E-01   0.177924100E+01  -0.712950957E-01   0.760141652E-01
 0.494016052E+01   0.713680988E-01   0.178484461E+01  -0.695248035E-01   0.744975894E-01
 0.501978587E+01   0.705602489E-01   0.179007868E+01  -0.672528306E-01   0.638289269E-01
 0.509757607E+01   0.693729405E-01   0.179479477E+01  -0.642898932E-01   0.637611393E-01
 0.517345511E+01   0.684726648E-01   0.179919240E+01  -0.613228594E-01   0.554181457E-01
 0.524734885E+01   0.674129183E-01   0.180309670E+01  -0.579945948E-01   0.551518229E-01
 0.531918509E+01   0.667668575E-01   0.180680247E+01  -0.548473811E-01   0.555342415E-01
 0.538889363E+01   0.660341669E-01   0.181007141E+01  -0.514910374E-01   0.438472439E-01
 0.545640637E+01   0.648775681E-01   0.181266745E+01  -0.477338800E-01   0.387218803E-01
 0.552165734E+01   0.640132604E-01   0.181506081E+01  -0.441709526E-01   0.380312130E-01
 0.558458278E+01   0.634550615E-01   0.181731947E+01  -0.408108340E-01   0.369453205E-01
 0.564512122E+01   0.628956020E-01   0.181924996E+01  -0.374633659E-01   0.320532616E-01
 0.570321349E+01   0.624414182E-01   0.182096001E+01  -0.342179060E-01   0.258972633E-01
 0.575880285E+01   0.616903529E-01   0.182213045E+01  -0.308869093E-01   0.206772970E-01
 0.581183497E+01   0.611172374E-01   0.182318191E+01  -0.277527141E-01   0.204918252E-01
 0.586225804E+01   0.607356090E-01   0.182416316E+01  -0.248170134E-01   0.203445347E-01
 0.591002278E+01   0.605182645E-01   0.182508249E+01  -0.220626500E-01   0.202411908E-01
 0.595508254E+01   0.604407103E-01   0.182594564E+01  -0.194769872E-01   0.202487354E-01
 0.599739328E+01   0.604266889E-01   0.182670493E+01  -0.170350488E-01   0.137434933E-01
 0.603691365E+01   0.600694415E-01   0.182698624E+01  -0.146441062E-01   0.657540639E-02
 0.607360506E+01   0.598155829E-01   0.182723585E+01  -0.124446511E-01   0.700901883E-02
 0.610743164E+01   0.596507712E-01   0.182746101E+01  -0.104298692E-01   0.713781786E-02
 0.613836035E+01   0.595525922E-01   0.182765829E+01  -0.859461683E-02   0.618823115E-02
 0.616636096E+01   0.594959364E-01   0.182781955E+01  -0.693474204E-02   0.592701577E-02
 0.619140611E+01   0.594827037E-01   0.182796150E+01  -0.545160140E-02   0.589684792E-02
 0.621347135E+01   0.595018507E-01   0.182808646E+01  -0.414477218E-02   0.590210200E-02
 0.623253511E+01   0.595416273E-01   0.182819441E+01  -0.301450305E-02   0.589898567E-02
 0.624857876E+01   0.595918426E-01   0.182828531E+01  -0.206188824E-02   0.590303031E-02
 0.626158666E+01   0.596438896E-01   0.182835911E+01  -0.128800993E-02   0.590709598E-02
 0.627154613E+01   0.596906019E-01   0.182841569E+01  -0.694560481E-03   0.590954543E-02
 0.627844763E+01   0.597264626E-01   0.182845492E+01  -0.282850920E-03   0.591090955E-02
 0.628228595E+01   0.597476436E-01   0.182847676E+01  -0.537076813E-04   0.591155133E-02
 0.899353865E-03   0.856590608E-01   0.185438817E+01   0.769989162E-04  -0.629105108E-02
 0.473767679E-02   0.856358879E-01   0.185436406E+01   0.405548784E-03  -0.628835618E-02
 0.116391775E-01   0.855974473E-01   0.185432078E+01   0.996007666E-03  -0.628327378E-02
 0.215986473E-01   0.855492818E-01   0.185425846E+01   0.184743323E-02  -0.627539996E-02
 0.346065430E-01   0.854993749E-01   0.185417733E+01   0.295829465E-02  -0.626415043E-02
 0.506501997E-01   0.854580896E-01   0.185407764E+01   0.432661856E-02  -0.625385014E-02
 0.697139564E-01   0.854376050E-01   0.185395922E+01   0.595139747E-02  -0.626097782E-02
 0.917791922E-01   0.854525323E-01   0.185382203E+01   0.783173688E-02  -0.624706144E-02
 0.116824351E+00   0.855203800E-01   0.185366660E+01   0.996815669E-02  -0.628512847E-02
 0.144824962E+00   0.856556560E-01   0.185348813E+01   0.123615370E-01  -0.633515256E-02
 0.175753667E+00   0.859085421E-01   0.185331418E+01   0.150216374E-01  -0.581923343E-02
 0.209580248E+00   0.861080448E-01   0.185295299E+01   0.179147075E-01  -0.150463735E-01
 0.246271653E+00   0.861786498E-01   0.185230764E+01   0.210093757E-01  -0.188942537E-01
 0.285792031E+00   0.863501086E-01   0.185157677E+01   0.243436108E-01  -0.184519104E-01
 0.328102769E+00   0.866848159E-01   0.185078978E+01   0.279340075E-01  -0.185686474E-01
 0.373162524E+00   0.872153499E-01   0.184994230E+01   0.317953225E-01  -0.187943756E-01
 0.420927270E+00   0.877924569E-01   0.184885859E+01   0.358717907E-01  -0.304850891E-01
 0.471350337E+00   0.882007697E-01   0.184731214E+01   0.400510649E-01  -0.317485447E-01
 0.524382457E+00   0.887230781E-01   0.184553078E+01   0.444217919E-01  -0.340888076E-01
 0.579971813E+00   0.895519062E-01   0.184363708E+01   0.490748752E-01  -0.333761330E-01
 0.638064089E+00   0.903733712E-01   0.184132164E+01   0.538300454E-01  -0.448075812E-01
 0.698602525E+00   0.912052351E-01   0.183856863E+01   0.586586573E-01  -0.445324950E-01
 0.761527970E+00   0.922124910E-01   0.183547086E+01   0.636292895E-01  -0.520142765E-01
 0.826778940E+00   0.934805857E-01   0.183203913E+01   0.687783558E-01  -0.577514408E-01
 0.894291679E+00   0.945733254E-01   0.182793864E+01   0.737451523E-01  -0.633123358E-01
 0.964000221E+00   0.956914356E-01   0.182329605E+01   0.786085689E-01  -0.686470469E-01
 0.103583646E+01   0.972873441E-01   0.181832684E+01   0.836952564E-01  -0.719838319E-01
 0.110973019E+01   0.985111700E-01   0.181255698E+01   0.882245550E-01  -0.834775798E-01
 0.118560923E+01   0.997824850E-01   0.180622103E+01   0.924710952E-01  -0.917388385E-01
 0.126339943E+01   0.101088268E+00   0.179931628E+01   0.963496845E-01  -0.935121023E-01
 0.134302479E+01   0.102310295E+00   0.179183175E+01   0.996678051E-01  -0.994128864E-01
 0.142440750E+01   0.103490077E+00   0.178382453E+01   0.102383237E+00  -0.106503815E+00
 0.150746804E+01   0.104345757E+00   0.177533279E+01   0.104136587E+00  -0.112075898E+00
 0.159212526E+01   0.104945347E+00   0.176649161E+01   0.104921478E+00  -0.114499798E+00
 0.167829644E+01   0.105306166E+00   0.175743157E+01   0.104698379E+00  -0.114628939E+00
 0.176589739E+01   0.105382020E+00   0.174829993E+01   0.103382863E+00  -0.113119422E+00
 0.185484251E+01   0.104923921E+00   0.173932521E+01   0.100719601E+00  -0.109304883E+00
 0.194504489E+01   0.104088454E+00   0.173067704E+01   0.968836587E-01  -0.105255361E+00
 0.203641640E+01   0.103095955E+00   0.172244153E+01   0.921207507E-01  -0.100011690E+00
 0.212886777E+01   0.102152928E+00   0.171463344E+01   0.866537622E-01  -0.921121117E-01
 0.222230865E+01   0.100664042E+00   0.170768778E+01   0.800449722E-01  -0.772884977E-01
 0.231664774E+01   0.993461242E-01   0.170131305E+01   0.729706943E-01  -0.765078962E-01
 0.241179288E+01   0.978945362E-01   0.169576769E+01   0.652683998E-01  -0.585952016E-01
 0.250765110E+01   0.965585326E-01   0.169093193E+01   0.571938957E-01  -0.570774694E-01
 0.260412873E+01   0.953238257E-01   0.168684515E+01   0.488020733E-01  -0.383396271E-01
 0.270113151E+01   0.941109287E-01   0.168360062E+01   0.401248147E-01  -0.386691013E-01
 0.279856465E+01   0.933514465E-01   0.168081625E+01   0.313977228E-01  -0.234033755E-01
 0.289633297E+01   0.925220630E-01   0.167897588E+01   0.224651909E-01  -0.212323935E-01
 0.299434092E+01   0.920482308E-01   0.167767699E+01   0.135049932E-01  -0.718568501E-02
 0.309249275E+01   0.917625414E-01   0.167707719E+01   0.450398570E-02  -0.675840045E-02
 0.319069256E+01   0.917625443E-01   0.167707719E+01  -0.450398583E-02   0.675863241E-02
 0.328884439E+01   0.920482111E-01   0.167767701E+01  -0.135049903E-01   0.718600931E-02
 0.338685234E+01   0.925220507E-01   0.167897589E+01  -0.224651878E-01   0.212327569E-01
 0.348462065E+01   0.933514141E-01   0.168081628E+01  -0.313977120E-01   0.234012999E-01
 0.358205380E+01   0.941109210E-01   0.168360062E+01  -0.401248114E-01   0.386692208E-01
 0.367905658E+01   0.953238025E-01   0.168684517E+01  -0.488020614E-01   0.383403774E-01
 0.377553421E+01   0.965584918E-01   0.169093196E+01  -0.571938715E-01   0.570775139E-01
 0.387139242E+01   0.978944535E-01   0.169576775E+01  -0.652683447E-01   0.585963211E-01
 0.396653756E+01   0.993460664E-01   0.170131309E+01  -0.729706519E-01   0.765086628E-01
 0.406087666E+01   0.100664018E+00   0.170768779E+01  -0.800449527E-01   0.772890835E-01
 0.415431754E+01   0.102152913E+00   0.171463345E+01  -0.866537494E-01   0.921124087E-01
 0.424676890E+01   0.103095949E+00   0.172244153E+01  -0.921207452E-01   0.100011646E+00
 0.433814041E+01   0.104088420E+00   0.173067705E+01  -0.968836272E-01   0.105255830E+00
 0.442834280E+01   0.104923898E+00   0.173932521E+01  -0.100719578E+00   0.109304194E+00
 0.451728792E+01   0.105382012E+00   0.174829993E+01  -0.103382855E+00   0.113119046E+00
 0.460488886E+01   0.105306167E+00   0.175743157E+01  -0.104698380E+00   0.114628744E+00
 0.469106005E+01   0.104945353E+00   0.176649161E+01  -0.104921484E+00   0.114499756E+00
 0.477571727E+01   0.104345773E+00   0.177533279E+01  -0.104136603E+00   0.112075955E+00
 0.485877781E+01   0.103490105E+00   0.178382453E+01  -0.102383265E+00   0.106503857E+00
 0.494016052E+01   0.102310377E+00   0.179183177E+01  -0.996678850E-01   0.994129270E-01
 0.501978587E+01   0.101088301E+00   0.179931629E+01  -0.963497155E-01   0.935120399E-01
 0.509757607E+01   0.997825612E-01   0.180622105E+01  -0.924711660E-01   0.917387707E-01
 0.517345511E+01   0.985112036E-01   0.181255699E+01  -0.882245852E-01   0.834775541E-01
 0.524734885E+01   0.972874219E-01   0.181832688E+01  -0.836953234E-01   0.719839889E-01
 0.531918509E+01   0.956914831E-01   0.182329607E+01  -0.786086079E-01   0.686469452E-01
 0.538889363E+01   0.945733615E-01   0.182793866E+01  -0.737451804E-01   0.633123931E-01
 0.545640637E+01   0.934806242E-01   0.183203915E+01  -0.687783842E-01   0.577515341E-01
 0.552165734E+01   0.922125154E-01   0.183547087E+01  -0.636293064E-01   0.520141979E-01
 0.558458278E+01   0.912052475E-01   0.183856864E+01  -0.586586652E-01   0.445323024E-01
 0.564512122E+01   0.903734286E-01   0.184132169E+01  -0.538300793E-01   0.448084249E-01
 0.570321349E+01   0.895519693E-01   0.184363713E+01  -0.490749096E-01   0.333760604E-01
 0.575880285E+01   0.887231198E-01   0.184553081E+01  -0.444218121E-01   0.340889938E-01
 0.581183497E+01   0.882007691E-01   0.184731214E+01  -0.400510647E-01   0.317537001E-01
 0.586225804E+01   0.877896363E-01   0.184885600E+01  -0.358706707E-01   0.304266977E-01
 0.591002278E+01   0.872156640E-01   0.184994259E+01  -0.317954458E-01   0.188147093E-01
 0.595508254E+01   0.866847823E-01   0.185078975E+01  -0.279339924E-01   0.185705252E-01
 0.599739328E+01   0.863501204E-01   0.185157678E+01  -0.243436143E-01   0.184516316E-01
 0.603691365E+01   0.861786536E-01   0.185230765E+01  -0.210093767E-01   0.188941868E-01
 0.607360506E+01   0.861080583E-01   0.185295301E+01  -0.179147101E-01   0.150468861E-01
 0.610743164E+01   0.859085826E-01   0.185331422E+01  -0.150216445E-01   0.581923514E-02
 0.613836035E+01   0.856556861E-01   0.185348816E+01  -0.123615414E-01   0.633489987E-02
 0.616636096E+01   0.855203970E-01   0.185366662E+01  -0.996815855E-02   0.628500057E-02
 0.619140611E+01   0.854525379E-01   0.185382203E+01  -0.783173749E-02   0.624665978E-02
 0.621347135E+01   0.854375922E-01   0.185395920E+01  -0.595139740E-02   0.626125201E-02
 0.623253511E+01   0.854581287E-01   0.185407768E+01  -0.432661817E-02   0.625606830E-02
 0.624857876E+01   0.854994007E-01   0.185417735E+01  -0.295829418E-02   0.625926934E-02
 0.626158666E+01   0.855490577E-01   0.185425824E+01  -0.184743283E-02   0.626280968E-02
 0.627154613E+01   0.855968823E-01   0.185432021E+01  -0.996007405E-03   0.626481102E-02
 0.627844763E+01   0.856350106E-01   0.185436318E+01  -0.405548665E-03   0.626584019E-02
 0.628228595E+01   0.856579830E-01   0.185438709E+01  -0.769988925E-04   0.626628679E-02
 0.899353865E-03   0.106022059E+00   0.187475116E+01   0.953053594E-04  -0.602703270E-02
 0.473767679E-02   0.105999238E+00   0.187472718E+01   0.501993596E-03  -0.602794879E-02
 0.116391775E-01   0.105962122E+00   0.187468408E+01   0.123298553E-02  -0.602937911E-02
 0.215986473E-01   0.105917434E+00   0.187462186E+01   0.228729478E-02  -0.603094847E-02
 0.346065430E-01   0.105874856E+00   0.187454061E+01   0.366328537E-02  -0.603211092E-02
 0.506501997E-01   0.105846986E+00   0.187444039E+01   0.535885450E-02  -0.602505722E-02
 0.697139564E-01   0.105849785E+00   0.187432181E+01   0.737329537E-02  -0.598469255E-02
 0.917791922E-01   0.105900681E+00   0.187418411E+01   0.970584547E-02  -0.613535721E-02
 0.116824351E+00   0.106016007E+00   0.187402258E+01   0.123567691E-01  -0.586574303E-02
 0.144824962E+00   0.106261737E+00   0.187387832E+01   0.153364752E-01  -0.555247704E-02
 0.175753667E+00   0.106398189E+00   0.187348836E+01   0.186031876E-01  -0.175944126E-01
 0.209580248E+00   0.106464090E+00   0.187286363E+01   0.221497820E-01  -0.178665456E-01
 0.246271653E+00   0.106669807E+00   0.187218052E+01   0.260050052E-01  -0.179076075E-01
 0.285792031E+00   0.107053491E+00   0.187144036E+01   0.301803660E-01  -0.172084859E-01
 0.328102769E+00   0.107568524E+00   0.187055958E+01   0.346633333E-01  -0.253383448E-01
 0.373162524E+00   0.107925250E+00   0.186922690E+01   0.393453995E-01  -0.293273214E-01
 0.420927270E+00   0.108493978E+00   0.186775269E+01   0.443314610E-01  -0.287668196E-01
 0.471350337E+00   0.109298997E+00   0.186610973E+01   0.496315570E-01  -0.344463589E-01
 0.524382457E+00   0.109966368E+00   0.186391986E+01   0.550575254E-01  -0.446548839E-01
 0.579971813E+00   0.110749518E+00   0.186136866E+01   0.606908128E-01  -0.439696733E-01
 0.638064089E+00   0.111954204E+00   0.185865596E+01   0.666851223E-01  -0.429102617E-01
 0.698602525E+00   0.113000697E+00   0.185525829E+01   0.726764288E-01  -0.597223674E-01
 0.761527970E+00   0.114155766E+00   0.185135309E+01   0.787706759E-01  -0.601607109E-01
 0.826778940E+00   0.115780975E+00   0.184714197E+01   0.851860110E-01  -0.677209201E-01
 0.894291679E+00   0.117048049E+00   0.184200954E+01   0.912700932E-01  -0.754989833E-01
 0.964000221E+00   0.118689968E+00   0.183641087E+01   0.975012597E-01  -0.824755132E-01
 0.103583646E+01   0.120487458E+00   0.183015441E+01   0.103654065E+00  -0.878079314E-01
 0.110973019E+01   0.121987163E+00   0.182300156E+01   0.109249128E+00  -0.982803425E-01
 0.118560923E+01   0.123733934E+00   0.181522042E+01   0.114667557E+00  -0.107857767E+00
 0.126339943E+01   0.125598727E+00   0.180673328E+01   0.119710990E+00  -0.114662297E+00
 0.134302479E+01   0.127012918E+00   0.179740929E+01   0.123732497E+00  -0.121622648E+00