 TITLE="poloidal viscosity for solution of GS equation with flow"
 Variables ="theta", "r", "R [m] ","z [m]", "viscosity"
 ZONE I=         100,J=          44,F=Point
 0.899353865E-03   0.382355353E-01   0.185605680E+01   0.343709802E-04  -0.440946335E-02
 0.473767679E-02   0.382167482E-01   0.185603759E+01   0.180988891E-03  -0.441281453E-02
 0.116391775E-01   0.381843544E-01   0.185600303E+01   0.444318364E-03  -0.441870796E-02
 0.215986473E-01   0.381407479E-01   0.185595312E+01   0.823652928E-03  -0.442690709E-02
 0.346065430E-01   0.380893815E-01   0.185588786E+01   0.131789822E-02  -0.443705705E-02
 0.506501997E-01   0.380347512E-01   0.185580726E+01   0.192563960E-02  -0.444533344E-02
 0.697139564E-01   0.379826195E-01   0.185571164E+01   0.264578964E-02  -0.443965030E-02
 0.917791922E-01   0.379396990E-01   0.185560130E+01   0.347718077E-02  -0.443748462E-02
 0.116824351E+00   0.379133713E-01   0.185547623E+01   0.441911853E-02  -0.443895385E-02
 0.144824962E+00   0.379120449E-01   0.185533643E+01   0.547142238E-02  -0.444319013E-02
 0.175753667E+00   0.379450789E-01   0.185518182E+01   0.663469313E-02  -0.445239994E-02
 0.209580248E+00   0.380228538E-01   0.185501214E+01   0.791061229E-02  -0.446772841E-02
 0.246271653E+00   0.381569224E-01   0.185482694E+01   0.930225506E-02  -0.449048519E-02
 0.285792031E+00   0.383602194E-01   0.185462555E+01   0.108144241E-01  -0.452196988E-02
 0.328102769E+00   0.386472691E-01   0.185440693E+01   0.124539911E-01  -0.456754937E-02
 0.373162524E+00   0.390351178E-01   0.185416996E+01   0.142307388E-01  -0.465376855E-02
 0.420927270E+00   0.395602641E-01   0.185392811E+01   0.161650896E-01  -0.352595187E-02
 0.471350337E+00   0.399313705E-01   0.185339837E+01   0.181324297E-01  -0.130126404E-01
 0.524382457E+00   0.401845747E-01   0.185260640E+01   0.201195390E-01  -0.133298996E-01
 0.579971813E+00   0.405769216E-01   0.185176297E+01   0.222361886E-01  -0.134272001E-01
 0.638064089E+00   0.411315462E-01   0.185086019E+01   0.244996749E-01  -0.137666004E-01
 0.698602525E+00   0.418750205E-01   0.184988671E+01   0.269318538E-01  -0.140931930E-01
 0.761527970E+00   0.428488474E-01   0.184883449E+01   0.295669275E-01  -0.144476267E-01
 0.826778940E+00   0.441030854E-01   0.184768975E+01   0.324492687E-01  -0.140722035E-01
 0.894291679E+00   0.451185170E-01   0.184606905E+01   0.351815874E-01  -0.281485980E-01
 0.964000221E+00   0.457322098E-01   0.184389959E+01   0.375680388E-01  -0.280886926E-01
 0.103583646E+01   0.466345250E-01   0.184159587E+01   0.401191720E-01  -0.287931899E-01
 0.110973019E+01   0.478605733E-01   0.183911460E+01   0.428629015E-01  -0.296280332E-01
 0.118560923E+01   0.491444023E-01   0.183628682E+01   0.455433477E-01  -0.384143941E-01
 0.126339943E+01   0.502257743E-01   0.183301848E+01   0.478714182E-01  -0.385976076E-01
 0.134302479E+01   0.517159737E-01   0.182949962E+01   0.503801712E-01  -0.397801627E-01
 0.142440750E+01   0.527304650E-01   0.182551228E+01   0.521665804E-01  -0.494317226E-01
 0.150746804E+01   0.533137714E-01   0.182119529E+01   0.532069012E-01  -0.499691859E-01
 0.159212526E+01   0.539992260E-01   0.181667046E+01   0.539869475E-01  -0.534271320E-01
 0.167829644E+01   0.541301987E-01   0.181201345E+01   0.538177265E-01  -0.532649174E-01
 0.176589739E+01   0.545180730E-01   0.180725269E+01   0.534838778E-01  -0.528787349E-01
 0.185484251E+01   0.542451177E-01   0.180261948E+01   0.520714711E-01  -0.524848753E-01
 0.194504489E+01   0.540464724E-01   0.179806303E+01   0.503053887E-01  -0.468660687E-01
 0.203641640E+01   0.528386732E-01   0.179409799E+01   0.472136623E-01  -0.423422129E-01
 0.212886777E+01   0.520813633E-01   0.179024171E+01   0.441795852E-01  -0.420765907E-01
 0.222230865E+01   0.513120539E-01   0.178670621E+01   0.408017034E-01  -0.348561240E-01
 0.231664774E+01   0.505546378E-01   0.178351499E+01   0.371328618E-01  -0.345511803E-01
 0.241179288E+01   0.499899489E-01   0.178056367E+01   0.333296220E-01  -0.231098082E-01
 0.250765110E+01   0.489581598E-01   0.177837571E+01   0.289990906E-01  -0.206592134E-01
 0.260412873E+01   0.479887131E-01   0.177659851E+01   0.245682697E-01  -0.187663266E-01
 0.270113151E+01   0.474785178E-01   0.177487434E+01   0.202427771E-01  -0.184446179E-01
 0.279856465E+01   0.470861701E-01   0.177347830E+01   0.158369244E-01  -0.680505237E-02
 0.289633297E+01   0.463385283E-01   0.177286946E+01   0.112513675E-01  -0.634752037E-02
 0.299434092E+01   0.460445017E-01   0.177227506E+01   0.675563156E-02  -0.642462466E-02
 0.309249275E+01   0.461931506E-01   0.177168380E+01   0.226744264E-02  -0.601755829E-02
 0.319069256E+01   0.461932096E-01   0.177168374E+01  -0.226744533E-02   0.601904840E-02
 0.328884439E+01   0.460444920E-01   0.177227507E+01  -0.675563011E-02   0.642535738E-02
 0.338685234E+01   0.463384725E-01   0.177286951E+01  -0.112513540E-01   0.634703110E-02
 0.348462065E+01   0.470860504E-01   0.177347841E+01  -0.158368841E-01   0.680464918E-02
 0.358205380E+01   0.474784870E-01   0.177487437E+01  -0.202427640E-01   0.184455503E-01
 0.367905658E+01   0.479886143E-01   0.177659860E+01  -0.245682191E-01   0.187680000E-01
 0.377553421E+01   0.489579845E-01   0.177837585E+01  -0.289989869E-01   0.206598043E-01
 0.387139242E+01   0.499897970E-01   0.178056378E+01  -0.333295209E-01   0.231079774E-01
 0.396653756E+01   0.505545561E-01   0.178351505E+01  -0.371328018E-01   0.345519222E-01
 0.406087666E+01   0.513118928E-01   0.178670631E+01  -0.408015754E-01   0.348551514E-01
 0.415431754E+01   0.520812904E-01   0.179024175E+01  -0.441795232E-01   0.420769521E-01
 0.424676890E+01   0.528385246E-01   0.179409805E+01  -0.472135297E-01   0.423416901E-01
 0.433814041E+01   0.540463611E-01   0.179806307E+01  -0.503052851E-01   0.468645076E-01
 0.442834280E+01   0.542451122E-01   0.180261948E+01  -0.520714658E-01   0.524849902E-01
 0.451728792E+01   0.545180515E-01   0.180725270E+01  -0.534838567E-01   0.528778208E-01
 0.460488886E+01   0.541306489E-01   0.181201342E+01  -0.538181757E-01   0.532633871E-01
 0.469106005E+01   0.539996291E-01   0.181667043E+01  -0.539873498E-01   0.534253766E-01
 0.477571727E+01   0.533104467E-01   0.182119508E+01  -0.532035831E-01   0.499695884E-01
 0.485877781E+01   0.527304924E-01   0.182551229E+01  -0.521666072E-01   0.494318205E-01
 0.494016052E+01   0.517163153E-01   0.182949969E+01  -0.503805040E-01   0.397800723E-01
 0.501978587E+01   0.502260136E-01   0.183301855E+01  -0.478716462E-01   0.385981368E-01
 0.509757607E+01   0.491445752E-01   0.183628688E+01  -0.455435078E-01   0.384151018E-01
 0.517345511E+01   0.478608451E-01   0.183911472E+01  -0.428631448E-01   0.296292460E-01
 0.524734885E+01   0.466347149E-01   0.184159597E+01  -0.401193351E-01   0.288004306E-01
 0.531918509E+01   0.457294234E-01   0.184389802E+01  -0.375657337E-01   0.281467700E-01
 0.538889363E+01   0.451185972E-01   0.184606910E+01  -0.351816473E-01   0.281526051E-01
 0.545640637E+01   0.441033463E-01   0.184768993E+01  -0.324494609E-01   0.140717764E-01
 0.552165734E+01   0.428490405E-01   0.184883463E+01  -0.295670611E-01   0.144465365E-01
 0.558458278E+01   0.418752302E-01   0.184988687E+01  -0.269319880E-01   0.140909867E-01
 0.564512122E+01   0.411320985E-01   0.185086064E+01  -0.244999900E-01   0.137598256E-01
 0.570321349E+01   0.405752362E-01   0.185176158E+01  -0.222352393E-01   0.135412624E-01
 0.575880285E+01   0.401846067E-01   0.185260643E+01  -0.201195501E-01   0.133289488E-01
 0.581183497E+01   0.399314534E-01   0.185339844E+01  -0.181324674E-01   0.130218641E-01
 0.586225804E+01   0.395578427E-01   0.185392589E+01  -0.161641295E-01   0.342846527E-02
 0.591002278E+01   0.390355373E-01   0.185417035E+01  -0.142308997E-01   0.468781703E-02
 0.595508254E+01   0.386473468E-01   0.185440700E+01  -0.124540122E-01   0.457049778E-02
 0.599739328E+01   0.383602993E-01   0.185462563E+01  -0.108144468E-01   0.452088009E-02
 0.603691365E+01   0.381569769E-01   0.185482699E+01  -0.930226839E-02   0.449014075E-02
 0.607360506E+01   0.380228888E-01   0.185501217E+01  -0.791061956E-02   0.446737574E-02
 0.610743164E+01   0.379450982E-01   0.185518184E+01  -0.663469651E-02   0.445206427E-02
 0.613836035E+01   0.379120508E-01   0.185533644E+01  -0.547142318E-02   0.444288858E-02
 0.616636096E+01   0.379133636E-01   0.185547622E+01  -0.441911775E-02   0.443851698E-02
 0.619140611E+01   0.379396825E-01   0.185560128E+01  -0.347717913E-02   0.443758503E-02
 0.621347135E+01   0.379826048E-01   0.185571162E+01  -0.264578768E-02   0.443851279E-02
 0.623253511E+01   0.380346611E-01   0.185580717E+01  -0.192563771E-02   0.444064387E-02
 0.624857876E+01   0.380892916E-01   0.185588777E+01  -0.131789665E-02   0.444522423E-02
 0.626158666E+01   0.381409275E-01   0.185595330E+01  -0.823651809E-03   0.444902438E-02
 0.627154613E+01   0.381849087E-01   0.185600359E+01  -0.444317703E-03   0.445144158E-02
 0.627844763E+01   0.382176479E-01   0.185603849E+01  -0.180988606E-03   0.445287090E-02
 0.628228595E+01   0.382366573E-01   0.185605792E+01  -0.343709243E-04   0.445358005E-02
 0.899353865E-03   0.593828978E-01   0.187720415E+01   0.533802233E-04  -0.363717266E-02
 0.473767679E-02   0.593668384E-01   0.187718745E+01   0.281149639E-03  -0.363822037E-02
 0.116391775E-01   0.593401576E-01   0.187715741E+01   0.690485695E-03  -0.363997555E-02
 0.215986473E-01   0.593066271E-01   0.187711407E+01   0.128072904E-02  -0.364221423E-02
 0.346065430E-01   0.592716800E-01   0.187705747E+01   0.205080969E-02  -0.364460850E-02
 0.506501997E-01   0.592423788E-01   0.187698769E+01   0.299934888E-02  -0.364470658E-02
 0.697139564E-01   0.592274031E-01   0.187690482E+01   0.412565910E-02  -0.363509018E-02
 0.917791922E-01   0.592361065E-01   0.187680808E+01   0.542900395E-02  -0.375101505E-02
 0.116824351E+00   0.592753708E-01   0.187669262E+01   0.690905606E-02  -0.400218477E-02
 0.144824962E+00   0.593528220E-01   0.187655276E+01   0.856571240E-02  -0.430448527E-02
 0.175753667E+00   0.594888924E-01   0.187639376E+01   0.104016181E-01  -0.426620386E-02
 0.209580248E+00   0.597057205E-01   0.187622054E+01   0.124217720E-01  -0.430373242E-02
 0.246271653E+00   0.600156209E-01   0.187602617E+01   0.146310133E-01  -0.399629874E-02
 0.285792031E+00   0.604408995E-01   0.187581068E+01   0.170391061E-01  -0.856822897E-02
 0.328102769E+00   0.606170240E-01   0.187520468E+01   0.195338001E-01  -0.127373932E-01
 0.373162524E+00   0.608849946E-01   0.187451612E+01   0.221963452E-01  -0.128302184E-01
 0.420927270E+00   0.613078184E-01   0.187377755E+01   0.250508221E-01  -0.129851336E-01
 0.471350337E+00   0.619138326E-01   0.187298378E+01   0.281144399E-01  -0.131764605E-01
 0.524382457E+00   0.627355664E-01   0.187212743E+01   0.314101297E-01  -0.132931708E-01
 0.579971813E+00   0.637206507E-01   0.187112255E+01   0.349183980E-01  -0.209065905E-01
 0.638064089E+00   0.644857142E-01   0.186961943E+01   0.384103878E-01  -0.218569447E-01
 0.698602525E+00   0.655348117E-01   0.186800393E+01   0.421486850E-01  -0.221382387E-01
 0.761527970E+00   0.668006153E-01   0.186617042E+01   0.460942569E-01  -0.266554750E-01
 0.826778940E+00   0.682233137E-01   0.186402499E+01   0.501959578E-01  -0.267097003E-01
 0.894291679E+00   0.695214225E-01   0.186134639E+01   0.542106454E-01  -0.357444620E-01
 0.964000221E+00   0.710307817E-01   0.185832565E+01   0.583504163E-01  -0.372578417E-01
 0.103583646E+01   0.725865924E-01   0.185482642E+01   0.624454431E-01  -0.447243195E-01
 0.110973019E+01   0.744026872E-01   0.185092310E+01   0.666335287E-01  -0.457406741E-01
 0.118560923E+01   0.762152300E-01   0.184645800E+01   0.706307289E-01  -0.585467966E-01
 0.126339943E+01   0.774767610E-01   0.184126418E+01   0.738449585E-01  -0.610267598E-01
 0.134302479E+01   0.789589315E-01   0.183565139E+01   0.769194393E-01  -0.703133741E-01
 0.142440750E+01   0.802195594E-01   0.182952177E+01   0.793616559E-01  -0.696414412E-01
 0.150746804E+01   0.811145853E-01   0.182295468E+01   0.809519869E-01  -0.772879520E-01
 0.159212526E+01   0.818884461E-01   0.181607580E+01   0.818698254E-01  -0.812915442E-01
 0.167829644E+01   0.821270746E-01   0.180900886E+01   0.816528921E-01  -0.811379142E-01
 0.176589739E+01   0.817793027E-01   0.180196708E+01   0.802277930E-01  -0.802402813E-01
 0.185484251E+01   0.812302649E-01   0.179505708E+01   0.779753021E-01  -0.762556103E-01
 0.194504489E+01   0.805945282E-01   0.178835779E+01   0.750158658E-01  -0.737776135E-01
 0.203641640E+01   0.795028339E-01   0.178212652E+01   0.710393138E-01  -0.702737662E-01
 0.212886777E+01   0.782877931E-01   0.177636420E+01   0.664099861E-01  -0.555227131E-01
 0.222230865E+01   0.766782362E-01   0.177132452E+01   0.609721489E-01  -0.555559682E-01
 0.231664774E+01   0.754187487E-01   0.176664239E+01   0.553959160E-01  -0.486680882E-01
 0.241179288E+01   0.740977168E-01   0.176259592E+01   0.494027218E-01  -0.366812841E-01
 0.250765110E+01   0.727516501E-01   0.175920521E+01   0.430924397E-01  -0.363016817E-01
 0.260412873E+01   0.716550737E-01   0.175626896E+01   0.366846234E-01  -0.330278669E-01
 0.270113151E+01   0.705006580E-01   0.175404955E+01   0.300584192E-01  -0.204181146E-01
 0.279856465E+01   0.696306568E-01   0.175224726E+01   0.234195683E-01  -0.200555694E-01
 0.289633297E+01   0.693823601E-01   0.175051540E+01   0.168472746E-01  -0.102467552E-01
 0.299434092E+01   0.686464895E-01   0.174991767E+01   0.100717723E-01  -0.680419020E-02
 0.309249275E+01   0.685885155E-01   0.174931543E+01   0.336657184E-02  -0.642111295E-02
 0.319069256E+01   0.685885318E-01   0.174931541E+01  -0.336657257E-02   0.642181814E-02
 0.328884439E+01   0.686464687E-01   0.174991769E+01  -0.100717693E-01   0.680468546E-02
 0.338685234E+01   0.693823308E-01   0.175051543E+01  -0.168472675E-01   0.102453999E-01
 0.348462065E+01   0.696306281E-01   0.175224728E+01  -0.234195586E-01   0.200560487E-01
 0.358205380E+01   0.705005792E-01   0.175404962E+01  -0.300583856E-01   0.204191704E-01
 0.367905658E+01   0.716550475E-01   0.175626898E+01  -0.366846099E-01   0.330277834E-01
 0.377553421E+01   0.727515801E-01   0.175920527E+01  -0.430923983E-01   0.363019596E-01
 0.387139242E+01   0.740975974E-01   0.176259601E+01  -0.494026424E-01   0.366788379E-01
 0.396653756E+01   0.754186344E-01   0.176664247E+01  -0.553958323E-01   0.486657375E-01
 0.406087666E+01   0.766781803E-01   0.177132456E+01  -0.609721043E-01   0.555565528E-01
 0.415431754E+01   0.782876621E-01   0.177636427E+01  -0.664098751E-01   0.555210794E-01
 0.424676890E+01   0.795027961E-01   0.178212653E+01  -0.710392800E-01   0.702737449E-01
 0.433814041E+01   0.805944816E-01   0.178835781E+01  -0.750158225E-01   0.737770524E-01
 0.442834280E+01   0.812302201E-01   0.179505710E+01  -0.779752591E-01   0.762556827E-01
 0.451728792E+01   0.817792776E-01   0.180196708E+01  -0.802277684E-01   0.802403499E-01
 0.460488886E+01   0.821270862E-01   0.180900886E+01  -0.816529036E-01   0.811376928E-01
 0.469106005E+01   0.818884544E-01   0.181607580E+01  -0.818698337E-01   0.812913399E-01
 0.477571727E+01   0.811146305E-01   0.182295469E+01  -0.809520320E-01   0.772879956E-01
 0.485877781E+01   0.802196679E-01   0.182952179E+01  -0.793617632E-01   0.696415625E-01
 0.494016052E+01   0.789589950E-01   0.183565140E+01  -0.769195012E-01   0.703134902E-01
 0.501978587E+01   0.774768720E-01   0.184126421E+01  -0.738450640E-01   0.610264469E-01
 0.509757607E+01   0.762144934E-01   0.184645771E+01  -0.706300538E-01   0.585081002E-01
 0.517345511E+01   0.744030958E-01   0.185092327E+01  -0.666338984E-01   0.457336150E-01
 0.524734885E+01   0.725867225E-01   0.185482649E+01  -0.624455552E-01   0.447229176E-01
 0.531918509E+01   0.710298467E-01   0.185832510E+01  -0.583496614E-01   0.371937887E-01
 0.538889363E+01   0.695218586E-01   0.186134665E+01  -0.542109944E-01   0.357316557E-01
 0.545640637E+01   0.682234668E-01   0.186402509E+01  -0.501960705E-01   0.267104483E-01
 0.552165734E+01   0.668007368E-01   0.186617051E+01  -0.460943406E-01   0.266553978E-01
 0.558458278E+01   0.655349650E-01   0.186800404E+01  -0.421487832E-01   0.221395929E-01
 0.564512122E+01   0.644858159E-01   0.186961951E+01  -0.384104483E-01   0.218564040E-01
 0.570321349E+01   0.637207203E-01   0.187112260E+01  -0.349184359E-01   0.209071693E-01
 0.575880285E+01   0.627356560E-01   0.187212751E+01  -0.314101743E-01   0.132943291E-01
 0.581183497E+01   0.619139293E-01   0.187298386E+01  -0.281144838E-01   0.131758454E-01
 0.586225804E+01   0.613078809E-01   0.187377761E+01  -0.250508477E-01   0.129848054E-01
 0.591002278E+01   0.608850382E-01   0.187451616E+01  -0.221963611E-01   0.128299726E-01
 0.595508254E+01   0.606170530E-01   0.187520471E+01  -0.195338093E-01   0.127373615E-01
 0.599739328E+01   0.604409236E-01   0.187581070E+01  -0.170391130E-01   0.856878595E-02
 0.603691365E+01   0.600157105E-01   0.187602626E+01  -0.146310353E-01   0.399635843E-02
 0.607360506E+01   0.597057781E-01   0.187622059E+01  -0.124217839E-01   0.430336082E-02
 0.610743164E+01   0.594889331E-01   0.187639380E+01  -0.104016252E-01   0.426588863E-02
 0.613836035E+01   0.593528475E-01   0.187655278E+01  -0.856571608E-02   0.430420061E-02
 0.616636096E+01   0.592753868E-01   0.187669264E+01  -0.690905792E-02   0.400205824E-02
 0.619140611E+01   0.592361179E-01   0.187680809E+01  -0.542900499E-02   0.375083660E-02
 0.621347135E+01   0.592274049E-01   0.187690482E+01  -0.412565911E-02   0.363468248E-02
 0.623253511E+01   0.592423620E-01   0.187698767E+01  -0.299934843E-02   0.364395375E-02
 0.624857876E+01   0.592716597E-01   0.187705745E+01  -0.205080923E-02   0.364552954E-02
 0.626158666E+01   0.593066467E-01   0.187711409E+01  -0.128072868E-02   0.364493422E-02
 0.627154613E+01   0.593402344E-01   0.187715748E+01  -0.690485469E-03   0.364406780E-02
 0.627844763E+01   0.593669685E-01   0.187718758E+01  -0.281149538E-03   0.364326073E-02
 0.628228595E+01   0.593830623E-01   0.187720432E+01  -0.533802032E-04   0.364273929E-02
 0.899353865E-03   0.852514272E-01   0.190307267E+01   0.766329953E-04  -0.362376567E-02
 0.473767679E-02   0.852340875E-01   0.190305441E+01   0.403648125E-03  -0.362297083E-02
 0.116391775E-01   0.852060968E-01   0.190302160E+01   0.991457378E-03  -0.362140654E-02
 0.215986473E-01   0.851729241E-01   0.190297433E+01   0.183930830E-02  -0.361884169E-02
 0.346065430E-01   0.851424434E-01   0.190291275E+01   0.294594394E-02  -0.361494225E-02
 0.506501997E-01   0.851248814E-01   0.190283700E+01   0.430974692E-02  -0.361232171E-02
 0.697139564E-01   0.851324681E-01   0.190274696E+01   0.593014344E-02  -0.362085675E-02
 0.917791922E-01   0.851798215E-01   0.190264260E+01   0.780674386E-02  -0.361790005E-02
 0.116824351E+00   0.852843245E-01   0.190252429E+01   0.994063132E-02  -0.364576682E-02
 0.144824962E+00   0.854616976E-01   0.190238833E+01   0.123335896E-01  -0.368142829E-02
 0.175753667E+00   0.857555380E-01   0.190225570E+01   0.149947543E-01  -0.339159857E-02
 0.209580248E+00   0.860414310E-01   0.190197998E+01   0.179008534E-01  -0.876728749E-02
 0.246271653E+00   0.862634712E-01   0.190148204E+01   0.210300680E-01  -0.112019087E-01
 0.285792031E+00   0.866069214E-01   0.190091530E+01   0.244160143E-01  -0.110093238E-01
 0.328102769E+00   0.871288532E-01   0.190030228E+01   0.280770662E-01  -0.112013550E-01
 0.373162524E+00   0.878675264E-01   0.189964170E+01   0.320331477E-01  -0.116917721E-01
 0.420927270E+00   0.886694083E-01   0.189875098E+01   0.362304456E-01  -0.188163665E-01
 0.471350337E+00   0.894414872E-01   0.189750970E+01   0.406144667E-01  -0.187274301E-01
 0.524382457E+00   0.905072485E-01   0.189616736E+01   0.453150681E-01  -0.206820810E-01
 0.579971813E+00   0.917944062E-01   0.189460489E+01   0.503039428E-01  -0.216131551E-01
 0.638064089E+00   0.929818045E-01   0.189250876E+01   0.553840706E-01  -0.300103457E-01
 0.698602525E+00   0.944485649E-01   0.189014441E+01   0.607444903E-01  -0.308656728E-01
 0.761527970E+00   0.963960233E-01   0.188759052E+01   0.665164638E-01  -0.306716401E-01
 0.826778940E+00   0.981628602E-01   0.188430161E+01   0.722240483E-01  -0.442719880E-01
 0.894291679E+00   0.100090390E+00   0.188048498E+01   0.780470759E-01  -0.459492025E-01
 0.964000221E+00   0.102572674E+00   0.187631166E+01   0.842616905E-01  -0.518218748E-01
 0.103583646E+01   0.104631169E+00   0.187116294E+01   0.900130499E-01  -0.616413227E-01
 0.110973019E+01   0.106985381E+00   0.186541989E+01   0.958135593E-01  -0.709155316E-01
 0.118560923E+01   0.109438382E+00   0.185894028E+01   0.101419882E+00  -0.747428171E-01
 0.126339943E+01   0.111448284E+00   0.185154283E+01   0.106224169E+00  -0.871725320E-01
 0.134302479E+01   0.113275674E+00   0.184340019E+01   0.110349903E+00  -0.975636795E-01
 0.142440750E+01   0.114908017E+00   0.183458314E+01   0.113678898E+00  -0.105919257E+00
 0.150746804E+01   0.116106150E+00   0.182516916E+01   0.115873408E+00  -0.112250559E+00
 0.159212526E+01   0.116797071E+00   0.181533138E+01   0.116770514E+00  -0.117049731E+00
 0.167829644E+01   0.116864819E+00   0.180528348E+01   0.116190321E+00  -0.117384584E+00
 0.176589739E+01   0.116337964E+00   0.179526755E+01   0.114130867E+00  -0.115478443E+00
 0.185484251E+01   0.115360038E+00   0.178549253E+01   0.110737488E+00  -0.111406605E+00
 0.194504489E+01   0.114111820E+00   0.177610517E+01   0.106213329E+00  -0.106119915E+00
 0.203641640E+01   0.112464862E+00   0.176732733E+01   0.100492297E+00  -0.941176688E-01
 0.212886777E+01   0.110471381E+00   0.175932058E+01   0.937101409E-01  -0.904814726E-01
 0.222230865E+01   0.108591555E+00   0.175197214E+01   0.863482113E-01  -0.829231428E-01
 0.231664774E+01   0.106291341E+00   0.174569227E+01   0.780721026E-01  -0.689606157E-01
 0.241179288E+01   0.104642558E+00   0.173982972E+01   0.697665989E-01  -0.652735600E-01
 0.250765110E+01   0.102458336E+00   0.173527074E+01   0.606886850E-01  -0.509612650E-01
 0.260412873E+01   0.101107540E+00   0.173096873E+01   0.517626129E-01  -0.455472482E-01
 0.270113151E+01   0.994206822E-01   0.172788979E+01   0.423886745E-01  -0.340288783E-01
 0.279856465E+01   0.983864464E-01   0.172516682E+01   0.330914667E-01  -0.238901255E-01
 0.289633297E+01   0.973122048E-01   0.172342121E+01   0.236282178E-01  -0.203440842E-01
 0.299434092E+01   0.968312532E-01   0.172203793E+01   0.142071629E-01  -0.708900516E-02
 0.309249275E+01   0.964723791E-01   0.172146516E+01   0.473512950E-02  -0.642491753E-02
 0.319069256E+01   0.964723808E-01   0.172146516E+01  -0.473512957E-02   0.642514626E-02
 0.328884439E+01   0.968312433E-01   0.172203794E+01  -0.142071614E-01   0.708906392E-02
 0.338685234E+01   0.973121998E-01   0.172342121E+01  -0.236282166E-01   0.203442172E-01
 0.348462065E+01   0.983864271E-01   0.172516684E+01  -0.330914602E-01   0.238908608E-01
 0.358205380E+01   0.994206675E-01   0.172788981E+01  -0.423886683E-01   0.340293069E-01
 0.367905658E+01   0.101107519E+00   0.173096875E+01  -0.517626020E-01   0.455474094E-01
 0.377553421E+01   0.102458253E+00   0.173527081E+01  -0.606886358E-01   0.509638152E-01
 0.387139242E+01   0.104642524E+00   0.173982975E+01  -0.697665766E-01   0.652732920E-01
 0.396653756E+01   0.106291299E+00   0.174569230E+01  -0.780720718E-01   0.689619571E-01
 0.406087666E+01   0.108591514E+00   0.175197217E+01  -0.863481786E-01   0.829227929E-01
 0.415431754E+01   0.110471299E+00   0.175932063E+01  -0.937100716E-01   0.904798967E-01
 0.424676890E+01   0.112464792E+00   0.176732737E+01  -0.100492235E+00   0.941170942E-01
 0.433814041E+01   0.114111793E+00   0.177610518E+01  -0.106213304E+00   0.106120277E+00
 0.442834280E+01   0.115359991E+00   0.178549254E+01  -0.110737442E+00   0.111406221E+00
 0.451728792E+01   0.116337951E+00   0.179526755E+01  -0.114130854E+00   0.115478447E+00
 0.460488886E+01   0.116864811E+00   0.180528348E+01  -0.116190313E+00   0.117384531E+00
 0.469106005E+01   0.116797078E+00   0.181533138E+01  -0.116770520E+00   0.117049631E+00
 0.477571727E+01   0.116106174E+00   0.182516917E+01  -0.115873432E+00   0.112250589E+00
 0.485877781E+01   0.114908041E+00   0.183458314E+01  -0.113678922E+00   0.105919285E+00
 0.494016052E+01   0.113275763E+00   0.184340021E+01  -0.110349989E+00   0.975638376E-01
 0.501978587E+01   0.111448330E+00   0.185154284E+01  -0.106224214E+00   0.871725245E-01
 0.509757607E+01   0.109438515E+00   0.185894033E+01  -0.101420005E+00   0.747427783E-01
 0.517345511E+01   0.106985446E+00   0.186541992E+01  -0.958136173E-01   0.709155089E-01
 0.524734885E+01   0.104631239E+00   0.187116298E+01  -0.900131102E-01   0.616411645E-01
 0.531918509E+01   0.102572743E+00   0.187631170E+01  -0.842617468E-01   0.518222631E-01
 0.538889363E+01   0.100090483E+00   0.188048504E+01  -0.780471480E-01   0.459510334E-01
 0.545640637E+01   0.981629530E-01   0.188430167E+01  -0.722241166E-01   0.442722311E-01
 0.552165734E+01   0.963961259E-01   0.188759059E+01  -0.665165345E-01   0.306712508E-01
 0.558458278E+01   0.944485756E-01   0.189014441E+01  -0.607444974E-01   0.308660620E-01
 0.564512122E+01   0.929819007E-01   0.189250884E+01  -0.553841285E-01   0.300095353E-01
 0.570321349E+01   0.917944839E-01   0.189460496E+01  -0.503039859E-01   0.216116359E-01
 0.575880285E+01   0.905072630E-01   0.189616738E+01  -0.453150759E-01   0.206812636E-01
 0.581183497E+01   0.894416717E-01   0.189750987E+01  -0.406145505E-01   0.187275569E-01
 0.586225804E+01   0.886693970E-01   0.189875097E+01  -0.362304408E-01   0.188167347E-01
 0.591002278E+01   0.878676217E-01   0.189964179E+01  -0.320331826E-01   0.116918974E-01
 0.595508254E+01   0.871288968E-01   0.190030232E+01  -0.280770801E-01   0.112010673E-01
 0.599739328E+01   0.866069428E-01   0.190091532E+01  -0.244160203E-01   0.110091434E-01
 0.603691365E+01   0.862634812E-01   0.190148205E+01  -0.210300704E-01   0.112017966E-01
 0.607360506E+01   0.860414478E-01   0.190198000E+01  -0.179008568E-01   0.876773772E-02
 0.610743164E+01   0.857555737E-01   0.190225573E+01  -0.149947606E-01   0.339148149E-02
 0.613836035E+01   0.854617209E-01   0.190238835E+01  -0.123335930E-01   0.368123443E-02
 0.616636096E+01   0.852843387E-01   0.190252431E+01  -0.994063292E-02   0.364566904E-02
 0.619140611E+01   0.851798283E-01   0.190264261E+01  -0.780674455E-02   0.361764475E-02
 0.621347135E+01   0.851324639E-01   0.190274695E+01  -0.593014363E-02   0.362102872E-02
 0.623253511E+01   0.851249083E-01   0.190283703E+01  -0.430974687E-02   0.361370365E-02
 0.624857876E+01   0.851424628E-01   0.190291277E+01  -0.294594380E-02   0.361192774E-02
 0.626158666E+01   0.851727953E-01   0.190297420E+01  -0.183930816E-02   0.361104041E-02
 0.627154613E+01   0.852057657E-01   0.190302127E+01  -0.991457277E-03   0.360995143E-02
 0.627844763E+01   0.852335711E-01   0.190305389E+01  -0.403648078E-03   0.360899002E-02
 0.628228595E+01   0.852507917E-01   0.190307204E+01  -0.766329855E-04   0.360838254E-02
 0.899353865E-03   0.105267372E+00   0.192308861E+01   0.946268238E-04  -0.328671253E-02
 0.473767679E-02   0.105250606E+00   0.192307070E+01   0.498447611E-03  -0.328812451E-02
 0.116391775E-01   0.105224350E+00   0.192303850E+01   0.122439969E-02  -0.329054437E-02
 0.215986473E-01   0.105195274E+00   0.192299202E+01   0.227169872E-02  -0.329376520E-02
 0.346065430E-01   0.105172978E+00   0.192293129E+01   0.363900079E-02  -0.329748561E-02
 0.506501997E-01   0.105169952E+00   0.192285637E+01   0.532458187E-02  -0.329751003E-02
 0.697139564E-01   0.105201933E+00   0.192276767E+01   0.732816077E-02  -0.328039061E-02
 0.917791922E-01   0.105286477E+00   0.192266463E+01   0.964954605E-02  -0.336667275E-02
 0.116824351E+00   0.105441164E+00   0.192254378E+01   0.122898413E-01  -0.322802870E-02
 0.144824962E+00   0.105720735E+00   0.192243516E+01   0.152581504E-01  -0.306704174E-02
 0.175753667E+00   0.105957215E+00   0.192214629E+01   0.185262484E-01  -0.957432200E-02
 0.209580248E+00   0.106178653E+00   0.192167659E+01   0.220903677E-01  -0.100401628E-01
 0.246271653E+00   0.106551617E+00   0.192115804E+01   0.259761882E-01  -0.101111652E-01
 0.285792031E+00   0.107118729E+00   0.192059509E+01   0.301987428E-01  -0.977137322E-02
 0.328102769E+00   0.107849683E+00   0.191991786E+01   0.347539852E-01  -0.148644437E-01
 0.373162524E+00   0.108526955E+00   0.191887934E+01   0.395647602E-01  -0.172537341E-01
 0.420927270E+00   0.109458118E+00   0.191772488E+01   0.447252546E-01  -0.175959953E-01
 0.471350337E+00   0.110735161E+00   0.191648143E+01   0.502837008E-01  -0.200509645E-01
 0.524382457E+00   0.111897999E+00   0.191468404E+01   0.560247472E-01  -0.271361649E-01
 0.579971813E+00   0.113288605E+00   0.191258479E+01   0.620820812E-01  -0.277517874E-01
 0.638064089E+00   0.115121107E+00   0.191029251E+01   0.685706545E-01  -0.321740228E-01
 0.698602525E+00   0.116970273E+00   0.190739006E+01   0.752294604E-01  -0.359883044E-01
 0.761527970E+00   0.119133491E+00   0.190404768E+01   0.822057825E-01  -0.409066279E-01
 0.826778940E+00   0.121468510E+00   0.190008579E+01   0.893708374E-01  -0.496372003E-01
 0.894291679E+00   0.124042423E+00   0.189548126E+01   0.967235677E-01  -0.572442583E-01
 0.964000221E+00   0.126808609E+00   0.189013277E+01   0.104170435E+00  -0.640194468E-01
 0.103583646E+01   0.129518572E+00   0.188385072E+01   0.111423399E+00  -0.751082202E-01
 0.110973019E+01   0.132583920E+00   0.187680827E+01   0.118739285E+00  -0.826492713E-01
 0.118560923E+01   0.135283910E+00   0.186865119E+01   0.125371706E+00  -0.938720344E-01
 0.126339943E+01   0.137846264E+00   0.185953020E+01   0.131384735E+00  -0.104698010E+00
 0.134302479E+01   0.140365337E+00   0.184951564E+01   0.136740269E+00  -0.116995463E+00