 TITLE="poloidal viscosity for solution of GS equation with flow"
 Variables ="theta", "r", "R [m] ","z [m]", "viscosity"
 ZONE I=         100,J=          44,F=Point
 0.899353865E-03   0.370532565E-01   0.181560082E+01   0.333040446E-04  -0.683552145E-02
 0.473767679E-02   0.370290178E-01   0.181557617E+01   0.175346238E-03  -0.682148526E-02
 0.116391775E-01   0.369869916E-01   0.181553204E+01   0.430357940E-03  -0.679592876E-02
 0.215986473E-01   0.369298699E-01   0.181546882E+01   0.797484430E-03  -0.675831933E-02
 0.346065430E-01   0.368615370E-01   0.181538705E+01   0.127542060E-02  -0.670788531E-02
 0.506501997E-01   0.367870106E-01   0.181528741E+01   0.186247800E-02  -0.665839013E-02
 0.697139564E-01   0.367112507E-01   0.181516966E+01   0.255722582E-02  -0.665955323E-02
 0.917791922E-01   0.366402783E-01   0.181503365E+01   0.335808806E-02  -0.665488177E-02
 0.116824351E+00   0.365815508E-01   0.181487978E+01   0.426388396E-02  -0.664680713E-02
 0.144824962E+00   0.365431504E-01   0.181470817E+01   0.527386537E-02  -0.664492691E-02
 0.175753667E+00   0.365339452E-01   0.181451872E+01   0.638795538E-02  -0.665055130E-02
 0.209580248E+00   0.365638806E-01   0.181431138E+01   0.760707950E-02  -0.666339221E-02
 0.246271653E+00   0.366432530E-01   0.181408524E+01   0.893322943E-02  -0.664951813E-02
 0.285792031E+00   0.367895128E-01   0.181384486E+01   0.103716082E-01  -0.666806609E-02
 0.328102769E+00   0.370065285E-01   0.181358000E+01   0.119252776E-01  -0.675729628E-02
 0.373162524E+00   0.373145354E-01   0.181329410E+01   0.136034540E-01  -0.682773685E-02
 0.420927270E+00   0.377308788E-01   0.181298497E+01   0.154170376E-01  -0.688877378E-02
 0.471350337E+00   0.382176904E-01   0.181259786E+01   0.173542532E-01  -0.139694927E-01
 0.524382457E+00   0.382738124E-01   0.181167861E+01   0.191629883E-01  -0.185422569E-01
 0.579971813E+00   0.384510794E-01   0.181071105E+01   0.210712257E-01  -0.189094726E-01
 0.638064089E+00   0.387645323E-01   0.180968518E+01   0.230897919E-01  -0.190932898E-01
 0.698602525E+00   0.392405025E-01   0.180859555E+01   0.252375828E-01  -0.188530636E-01
 0.761527970E+00   0.397346331E-01   0.180730680E+01   0.274180263E-01  -0.245171330E-01
 0.826778940E+00   0.402403499E-01   0.180580031E+01   0.296069934E-01  -0.250078715E-01
 0.894291679E+00   0.409638061E-01   0.180419390E+01   0.319421280E-01  -0.256269959E-01
 0.964000221E+00   0.418789999E-01   0.180242834E+01   0.344029036E-01  -0.303323272E-01
 0.103583646E+01   0.423871806E-01   0.180015683E+01   0.364652333E-01  -0.346631785E-01
 0.110973019E+01   0.430078088E-01   0.179768247E+01   0.385165801E-01  -0.409512008E-01
 0.118560923E+01   0.433095965E-01   0.179482045E+01   0.401362083E-01  -0.414901517E-01
 0.126339943E+01   0.439113857E-01   0.179183418E+01   0.418530219E-01  -0.420280727E-01
 0.134302479E+01   0.448637847E-01   0.178867728E+01   0.437052433E-01  -0.439049184E-01
 0.142440750E+01   0.452041134E-01   0.178514141E+01   0.447206059E-01  -0.487632973E-01
 0.150746804E+01   0.458058516E-01   0.178144644E+01   0.457140314E-01  -0.494032221E-01
 0.159212526E+01   0.464874885E-01   0.177755693E+01   0.464769178E-01  -0.524448722E-01
 0.167829644E+01   0.465782958E-01   0.177354997E+01   0.463094123E-01  -0.524722203E-01
 0.176589739E+01   0.470351141E-01   0.176942904E+01   0.461427481E-01  -0.528291412E-01
 0.185484251E+01   0.468628396E-01   0.176541465E+01   0.449850197E-01  -0.503562241E-01
 0.194504489E+01   0.468406334E-01   0.176142392E+01   0.435984541E-01  -0.504177384E-01
 0.203641640E+01   0.468045134E-01   0.175753365E+01   0.418219622E-01  -0.442507308E-01
 0.212886777E+01   0.464952692E-01   0.175392596E+01   0.394409201E-01  -0.446567456E-01
 0.222230865E+01   0.465812082E-01   0.175030120E+01   0.370398668E-01  -0.446590531E-01
 0.231664774E+01   0.464242262E-01   0.174704400E+01   0.340988564E-01  -0.326703265E-01
 0.241179288E+01   0.454656126E-01   0.174466173E+01   0.303128783E-01  -0.276026119E-01
 0.250765110E+01   0.448967444E-01   0.174237432E+01   0.265934750E-01  -0.273524940E-01
 0.260412873E+01   0.447404177E-01   0.174011516E+01   0.229053317E-01  -0.275910818E-01
 0.270113151E+01   0.446967342E-01   0.173811692E+01   0.190567627E-01  -0.226040135E-01
 0.279856465E+01   0.442402323E-01   0.173688474E+01   0.148797218E-01  -0.760816886E-02
 0.289633297E+01   0.436376369E-01   0.173621582E+01   0.105955617E-01  -0.781543556E-02
 0.299434092E+01   0.434579898E-01   0.173555989E+01   0.637614012E-02  -0.778003867E-02
 0.309249275E+01   0.436921151E-01   0.173490812E+01   0.214472251E-02  -0.730347266E-02
 0.319069256E+01   0.436921710E-01   0.173490807E+01  -0.214472513E-02   0.730434013E-02
 0.328884439E+01   0.434579931E-01   0.173555988E+01  -0.637614061E-02   0.778068902E-02
 0.338685234E+01   0.436375913E-01   0.173621587E+01  -0.105955507E-01   0.781630578E-02
 0.348462065E+01   0.442400952E-01   0.173688487E+01  -0.148796757E-01   0.760885445E-02
 0.358205380E+01   0.446967322E-01   0.173811692E+01  -0.190567619E-01   0.226040076E-01
 0.367905658E+01   0.447404282E-01   0.174011515E+01  -0.229053370E-01   0.275914038E-01
 0.377553421E+01   0.448966748E-01   0.174237438E+01  -0.265934338E-01   0.273536738E-01
 0.387139242E+01   0.454655102E-01   0.174466180E+01  -0.303128100E-01   0.276039270E-01
 0.396653756E+01   0.464240706E-01   0.174704410E+01  -0.340987423E-01   0.326676298E-01
 0.406087666E+01   0.465812480E-01   0.175030118E+01  -0.370398984E-01   0.446591387E-01
 0.415431754E+01   0.464952509E-01   0.175392597E+01  -0.394409046E-01   0.446572884E-01
 0.424676890E+01   0.468044294E-01   0.175753369E+01  -0.418218873E-01   0.442498025E-01
 0.433814041E+01   0.468406543E-01   0.176142391E+01  -0.435984736E-01   0.504179728E-01
 0.442834280E+01   0.468628131E-01   0.176541466E+01  -0.449849943E-01   0.503564688E-01
 0.451728792E+01   0.470351645E-01   0.176942903E+01  -0.461427976E-01   0.528287025E-01
 0.460488886E+01   0.465783443E-01   0.177354997E+01  -0.463094606E-01   0.524722315E-01
 0.469106005E+01   0.464875040E-01   0.177755693E+01  -0.464769333E-01   0.524441623E-01
 0.477571727E+01   0.458059862E-01   0.178144645E+01  -0.457141657E-01   0.494032308E-01
 0.485877781E+01   0.452041790E-01   0.178514142E+01  -0.447206707E-01   0.487632844E-01
 0.494016052E+01   0.448639085E-01   0.178867731E+01  -0.437053640E-01   0.439054606E-01
 0.501978587E+01   0.439115544E-01   0.179183423E+01  -0.418531828E-01   0.420275887E-01
 0.509757607E+01   0.433096824E-01   0.179482048E+01  -0.401362879E-01   0.414901731E-01
 0.517345511E+01   0.430078878E-01   0.179768250E+01  -0.385166507E-01   0.409518271E-01
 0.524734885E+01   0.423872614E-01   0.180015687E+01  -0.364653028E-01   0.346628530E-01
 0.531918509E+01   0.418791485E-01   0.180242842E+01  -0.344030258E-01   0.303335938E-01
 0.538889363E+01   0.409640427E-01   0.180419405E+01  -0.319423127E-01   0.256255952E-01
 0.545640637E+01   0.402404924E-01   0.180580040E+01  -0.296070982E-01   0.250072714E-01
 0.552165734E+01   0.397347250E-01   0.180730686E+01  -0.274180897E-01   0.245170232E-01
 0.558458278E+01   0.392406629E-01   0.180859568E+01  -0.252376857E-01   0.188539217E-01
 0.564512122E+01   0.387646249E-01   0.180968525E+01  -0.230898469E-01   0.190929472E-01
 0.570321349E+01   0.384511274E-01   0.181071109E+01  -0.210712520E-01   0.189093862E-01
 0.575880285E+01   0.382738331E-01   0.181167863E+01  -0.191629988E-01   0.185415704E-01
 0.581183497E+01   0.382177809E-01   0.181259794E+01  -0.173542943E-01   0.139719964E-01
 0.586225804E+01   0.377310440E-01   0.181298513E+01  -0.154171053E-01   0.688784428E-02
 0.591002278E+01   0.373146528E-01   0.181329421E+01  -0.136034968E-01   0.682706455E-02
 0.595508254E+01   0.370066121E-01   0.181358008E+01  -0.119253045E-01   0.675677408E-02
 0.599739328E+01   0.367895689E-01   0.181384491E+01  -0.103716241E-01   0.666802631E-02
 0.603691365E+01   0.366433240E-01   0.181408531E+01  -0.893324684E-02   0.664910523E-02
 0.607360506E+01   0.365639138E-01   0.181431142E+01  -0.760708638E-02   0.666263148E-02
 0.610743164E+01   0.365339531E-01   0.181451873E+01  -0.638795660E-02   0.664999545E-02
 0.613836035E+01   0.365431264E-01   0.181470814E+01  -0.527386274E-02   0.664359717E-02
 0.616636096E+01   0.365815436E-01   0.181487978E+01  -0.426388070E-02   0.664980684E-02
 0.619140611E+01   0.366401865E-01   0.181503355E+01  -0.335808186E-02   0.663992875E-02
 0.621347135E+01   0.367108038E-01   0.181516921E+01  -0.255720866E-02   0.668458491E-02
 0.623253511E+01   0.367884105E-01   0.181528881E+01  -0.186252171E-02   0.679857853E-02
 0.624857876E+01   0.368652267E-01   0.181539074E+01  -0.127553737E-02   0.677275235E-02
 0.626158666E+01   0.369337909E-01   0.181547274E+01  -0.797602480E-03   0.672380667E-02
 0.627154613E+01   0.369900568E-01   0.181553511E+01  -0.430440192E-03   0.668592483E-02
 0.627844763E+01   0.370309644E-01   0.181557811E+01  -0.175384975E-03   0.665947872E-02
 0.628228595E+01   0.370543949E-01   0.181560195E+01  -0.333119531E-04   0.664470405E-02
 0.899353865E-03   0.576130627E-01   0.183616061E+01   0.517886948E-04  -0.671566076E-02
 0.473767679E-02   0.575890964E-01   0.183613602E+01   0.272728016E-03  -0.671490413E-02
 0.116391775E-01   0.575481584E-01   0.183609182E+01   0.669629699E-03  -0.671330756E-02
 0.215986473E-01   0.574939625E-01   0.183602812E+01   0.124158136E-02  -0.671046218E-02
 0.346065430E-01   0.574318625E-01   0.183594506E+01   0.198715278E-02  -0.670576752E-02
 0.506501997E-01   0.573688141E-01   0.183584282E+01   0.290449653E-02  -0.670002841E-02
 0.697139564E-01   0.573131886E-01   0.183572155E+01   0.399231502E-02  -0.669775219E-02
 0.917791922E-01   0.572748536E-01   0.183558138E+01   0.524925136E-02  -0.669763205E-02
 0.116824351E+00   0.572650869E-01   0.183542234E+01   0.667472161E-02  -0.670035549E-02
 0.144824962E+00   0.572966485E-01   0.183524440E+01   0.826898774E-02  -0.670846549E-02
 0.175753667E+00   0.573836572E-01   0.183504725E+01   0.100335173E-01  -0.672656580E-02
 0.209580248E+00   0.575427483E-01   0.183483120E+01   0.119717427E-01  -0.675560692E-02
 0.246271653E+00   0.577881329E-01   0.183459217E+01   0.140880475E-01  -0.652986167E-02
 0.285792031E+00   0.581430903E-01   0.183433233E+01   0.163914638E-01  -0.990783864E-02
 0.328102769E+00   0.582931604E-01   0.183373125E+01   0.187844424E-01  -0.201359467E-01
 0.373162524E+00   0.583534730E-01   0.183288511E+01   0.212734759E-01  -0.193970195E-01
 0.420927270E+00   0.585623993E-01   0.183199808E+01   0.239290314E-01  -0.196105311E-01
 0.471350337E+00   0.589298479E-01   0.183105148E+01   0.267594427E-01  -0.197803204E-01
 0.524382457E+00   0.594848745E-01   0.183003967E+01   0.297828157E-01  -0.200120246E-01
 0.579971813E+00   0.602816740E-01   0.182897154E+01   0.330348780E-01  -0.188329754E-01
 0.638064089E+00   0.608562070E-01   0.182743048E+01   0.362483041E-01  -0.348858837E-01
 0.698602525E+00   0.611522025E-01   0.182537436E+01   0.393299390E-01  -0.360654704E-01
 0.761527970E+00   0.617032160E-01   0.182320726E+01   0.425769758E-01  -0.364917476E-01
 0.826778940E+00   0.625479997E-01   0.182090809E+01   0.460199695E-01  -0.370481945E-01
 0.894291679E+00   0.637577512E-01   0.181846379E+01   0.497166498E-01  -0.360185338E-01
 0.964000221E+00   0.645437633E-01   0.181535305E+01   0.530212752E-01  -0.527902834E-01
 0.103583646E+01   0.651955779E-01   0.181178471E+01   0.560870451E-01  -0.530175679E-01
 0.110973019E+01   0.662001805E-01   0.180800055E+01   0.592873015E-01  -0.577736996E-01
 0.118560923E+01   0.669950115E-01   0.180371979E+01   0.620861717E-01  -0.611632620E-01
 0.126339943E+01   0.681907343E-01   0.179918050E+01   0.649942787E-01  -0.630383655E-01
 0.134302479E+01   0.691239543E-01   0.179415628E+01   0.673386341E-01  -0.697265835E-01
 0.142440750E+01   0.701555358E-01   0.178878107E+01   0.694051352E-01  -0.741315395E-01
 0.150746804E+01   0.705880438E-01   0.178301480E+01   0.704465461E-01  -0.768156664E-01
 0.159212526E+01   0.711936456E-01   0.177702993E+01   0.711774580E-01  -0.796331467E-01
 0.167829644E+01   0.715305043E-01   0.177087234E+01   0.711175293E-01  -0.795492098E-01
 0.176589739E+01   0.717015527E-01   0.176464701E+01   0.703412189E-01  -0.794132138E-01
 0.185484251E+01   0.719863539E-01   0.175837411E+01   0.691018538E-01  -0.775428970E-01
 0.194504489E+01   0.714488532E-01   0.175242784E+01   0.665033677E-01  -0.739094123E-01
 0.203641640E+01   0.709218060E-01   0.174670547E+01   0.633717750E-01  -0.667276485E-01
 0.212886777E+01   0.703510135E-01   0.174129325E+01   0.596773078E-01  -0.667273254E-01
 0.222230865E+01   0.698173822E-01   0.173621095E+01   0.555164500E-01  -0.599199972E-01
 0.231664774E+01   0.694077026E-01   0.173144776E+01   0.509807347E-01  -0.526455704E-01
 0.241179288E+01   0.683434135E-01   0.172761073E+01   0.455659795E-01  -0.422577820E-01
 0.250765110E+01   0.675586871E-01   0.172411563E+01   0.400167327E-01  -0.420284569E-01
 0.260412873E+01   0.673779492E-01   0.172066905E+01   0.344944018E-01  -0.368602439E-01
 0.270113151E+01   0.663615016E-01   0.171851994E+01   0.282936723E-01  -0.233648069E-01
 0.279856465E+01   0.658043336E-01   0.171657697E+01   0.221326505E-01  -0.229762940E-01
 0.289633297E+01   0.656307411E-01   0.171488096E+01   0.159360010E-01  -0.982047360E-02
 0.299434092E+01   0.650244372E-01   0.171422682E+01   0.954035125E-02  -0.798171062E-02
 0.309249275E+01   0.650568565E-01   0.171356913E+01   0.319330206E-02  -0.745231324E-02
 0.319069256E+01   0.650568721E-01   0.171356911E+01  -0.319330279E-02   0.745268102E-02
 0.328884439E+01   0.650244215E-01   0.171422684E+01  -0.954034894E-02   0.798223837E-02
 0.338685234E+01   0.656306986E-01   0.171488100E+01  -0.159359906E-01   0.981964045E-02
 0.348462065E+01   0.658043248E-01   0.171657698E+01  -0.221326475E-01   0.229763769E-01
 0.358205380E+01   0.663614610E-01   0.171851998E+01  -0.282936550E-01   0.233655691E-01
 0.367905658E+01   0.673779051E-01   0.172066909E+01  -0.344943792E-01   0.368580930E-01
 0.377553421E+01   0.675586508E-01   0.172411566E+01  -0.400167112E-01   0.420290350E-01
 0.387139242E+01   0.683432927E-01   0.172761082E+01  -0.455658993E-01   0.422549036E-01
 0.396653756E+01   0.694076638E-01   0.173144779E+01  -0.509807062E-01   0.526443159E-01
 0.406087666E+01   0.698173293E-01   0.173621098E+01  -0.555164077E-01   0.599212434E-01
 0.415431754E+01   0.703509859E-01   0.174129327E+01  -0.596772844E-01   0.667273000E-01
 0.424676890E+01   0.709217410E-01   0.174670550E+01  -0.633717169E-01   0.667279809E-01
 0.433814041E+01   0.714488271E-01   0.175242785E+01  -0.665033434E-01   0.739099083E-01
 0.442834280E+01   0.719863436E-01   0.175837411E+01  -0.691018439E-01   0.775417716E-01
 0.451728792E+01   0.717015596E-01   0.176464701E+01  -0.703412256E-01   0.794134332E-01
 0.460488886E+01   0.715305357E-01   0.177087234E+01  -0.711175605E-01   0.795492086E-01
 0.469106005E+01   0.711936564E-01   0.177702993E+01  -0.711774688E-01   0.796329987E-01
 0.477571727E+01   0.705880764E-01   0.178301481E+01  -0.704465786E-01   0.768157218E-01
 0.485877781E+01   0.701555904E-01   0.178878107E+01  -0.694051892E-01   0.741315765E-01
 0.494016052E+01   0.691240902E-01   0.179415631E+01  -0.673387666E-01   0.697265328E-01
 0.501978587E+01   0.681908084E-01   0.179918052E+01  -0.649943495E-01   0.630381540E-01
 0.509757607E+01   0.669951080E-01   0.180371983E+01  -0.620862612E-01   0.611630410E-01
 0.517345511E+01   0.662002670E-01   0.180800059E+01  -0.592873790E-01   0.577740906E-01
 0.524734885E+01   0.651956554E-01   0.181178475E+01  -0.560871118E-01   0.530172681E-01
 0.531918509E+01   0.645438251E-01   0.181535308E+01  -0.530213258E-01   0.527907306E-01
 0.538889363E+01   0.637578720E-01   0.181846387E+01  -0.497167435E-01   0.360208817E-01
 0.545640637E+01   0.625480883E-01   0.182090815E+01  -0.460200346E-01   0.370481547E-01
 0.552165734E+01   0.617032656E-01   0.182320730E+01  -0.425770100E-01   0.364915559E-01
 0.558458278E+01   0.611522271E-01   0.182537438E+01  -0.393299550E-01   0.360654150E-01
 0.564512122E+01   0.608561642E-01   0.182743044E+01  -0.362482833E-01   0.348873913E-01
 0.570321349E+01   0.602792200E-01   0.182896947E+01  -0.330335640E-01   0.187145535E-01
 0.575880285E+01   0.594854429E-01   0.183004015E+01  -0.297831167E-01   0.200183586E-01
 0.581183497E+01   0.589299091E-01   0.183105153E+01  -0.267594704E-01   0.197815489E-01
 0.586225804E+01   0.585624285E-01   0.183199811E+01  -0.239290432E-01   0.196101284E-01
 0.591002278E+01   0.583534878E-01   0.183288512E+01  -0.212734813E-01   0.193968099E-01
 0.595508254E+01   0.582931714E-01   0.183373126E+01  -0.187844458E-01   0.201362304E-01
 0.599739328E+01   0.581431122E-01   0.183433235E+01  -0.163914700E-01   0.990857943E-02
 0.603691365E+01   0.577882173E-01   0.183459225E+01  -0.140880682E-01   0.652988797E-02
 0.607360506E+01   0.575427999E-01   0.183483125E+01  -0.119717534E-01   0.675515699E-02
 0.610743164E+01   0.573836907E-01   0.183504729E+01  -0.100335232E-01   0.672617132E-02
 0.613836035E+01   0.572966654E-01   0.183524442E+01  -0.826899018E-02   0.670810027E-02
 0.616636096E+01   0.572650897E-01   0.183542234E+01  -0.667472195E-02   0.669999285E-02
 0.619140611E+01   0.572748439E-01   0.183558137E+01  -0.524925047E-02   0.669727667E-02
 0.621347135E+01   0.573131679E-01   0.183572153E+01  -0.399231356E-02   0.669735343E-02
 0.623253511E+01   0.573687815E-01   0.183584279E+01  -0.290449495E-02   0.669952454E-02
 0.624857876E+01   0.574318210E-01   0.183594502E+01  -0.198715139E-02   0.670555782E-02
 0.626158666E+01   0.574939202E-01   0.183602808E+01  -0.124158033E-02   0.671057630E-02
 0.627154613E+01   0.575481194E-01   0.183609178E+01  -0.669629076E-03   0.671366821E-02
 0.627844763E+01   0.575890618E-01   0.183613598E+01  -0.272727744E-03   0.671543485E-02
 0.628228595E+01   0.576130312E-01   0.183616058E+01  -0.517886412E-04   0.671628580E-02
 0.899353865E-03   0.829433635E-01   0.186149091E+01   0.745582461E-04  -0.616339490E-02
 0.473767679E-02   0.829207459E-01   0.186146738E+01   0.392692611E-03  -0.616213150E-02
 0.116391775E-01   0.828831794E-01   0.186142513E+01   0.964427774E-03  -0.615963298E-02
 0.215986473E-01   0.828359931E-01   0.186136424E+01   0.178884218E-02  -0.615550994E-02
 0.346065430E-01   0.827868629E-01   0.186128488E+01   0.286444045E-02  -0.614919694E-02
 0.506501997E-01   0.827457588E-01   0.186118722E+01   0.418929500E-02  -0.614318689E-02
 0.697139564E-01   0.827246122E-01   0.186107125E+01   0.576241807E-02  -0.614763193E-02
 0.917791922E-01   0.827376463E-01   0.186093700E+01   0.758291868E-02  -0.614065543E-02
 0.116824351E+00   0.828016363E-01   0.186078483E+01   0.965124582E-02  -0.616603904E-02
 0.144824962E+00   0.829321448E-01   0.186061155E+01   0.119685647E-01  -0.620046725E-02
 0.175753667E+00   0.831690063E-01   0.186043534E+01   0.145423461E-01  -0.586789743E-02
 0.209580248E+00   0.834198392E-01   0.186014198E+01   0.173557560E-01  -0.120782487E-01
 0.246271653E+00   0.835032757E-01   0.185953144E+01   0.203570740E-01  -0.189395262E-01
 0.285792031E+00   0.836606944E-01   0.185881488E+01   0.235854085E-01  -0.181482866E-01
 0.328102769E+00   0.839774532E-01   0.185804528E+01   0.270615641E-01  -0.183304610E-01
 0.373162524E+00   0.844849427E-01   0.185721823E+01   0.307999360E-01  -0.186623449E-01
 0.420927270E+00   0.850354837E-01   0.185616059E+01   0.347455211E-01  -0.300872900E-01
 0.471350337E+00   0.853018911E-01   0.185454780E+01   0.387347187E-01  -0.331751548E-01
 0.524382457E+00   0.857875357E-01   0.185280817E+01   0.429519251E-01  -0.333617084E-01
 0.579971813E+00   0.865566162E-01   0.185095044E+01   0.474328448E-01  -0.340831702E-01
 0.638064089E+00   0.876028010E-01   0.184891501E+01   0.521792277E-01  -0.426127143E-01
 0.698602525E+00   0.882501032E-01   0.184612444E+01   0.567577943E-01  -0.493212250E-01
 0.761527970E+00   0.890828704E-01   0.184302416E+01   0.614697205E-01  -0.502708689E-01
 0.826778940E+00   0.903518939E-01   0.183973794E+01   0.664770676E-01  -0.500215618E-01
 0.894291679E+00   0.915010601E-01   0.183583404E+01   0.713491809E-01  -0.667575484E-01
 0.964000221E+00   0.924934505E-01   0.183129106E+01   0.759813562E-01  -0.668220965E-01
 0.103583646E+01   0.938791636E-01   0.182640778E+01   0.807632273E-01  -0.736826680E-01
 0.110973019E+01   0.953326119E-01   0.182096125E+01   0.853778856E-01  -0.772036845E-01
 0.118560923E+01   0.965008733E-01   0.181480624E+01   0.894300249E-01  -0.888398084E-01
 0.126339943E+01   0.977594976E-01   0.180812789E+01   0.931768304E-01  -0.929469615E-01
 0.134302479E+01   0.988905625E-01   0.180087775E+01   0.963364439E-01  -0.966883704E-01
 0.142440750E+01   0.100003875E+00   0.179313465E+01   0.989342892E-01  -0.103179253E+00
 0.150746804E+01   0.101029176E+00   0.178494133E+01   0.100826655E+00  -0.108705587E+00
 0.159212526E+01   0.101846919E+00   0.177637617E+01   0.101823755E+00  -0.111700243E+00
 0.167829644E+01   0.102347449E+00   0.176756747E+01   0.101756740E+00  -0.111947676E+00
 0.176589739E+01   0.102471951E+00   0.175868241E+01   0.100527981E+00  -0.110805403E+00
 0.185484251E+01   0.102248666E+00   0.174989330E+01   0.981515246E-01  -0.108579779E+00
 0.194504489E+01   0.101764441E+00   0.174134520E+01   0.947205589E-01  -0.105186048E+00
 0.203641640E+01   0.101160840E+00   0.173312881E+01   0.903916573E-01  -0.100391872E+00
 0.212886777E+01   0.100493245E+00   0.172533114E+01   0.852461155E-01  -0.892425376E-01
 0.222230865E+01   0.993270321E-01   0.171831693E+01   0.789818031E-01  -0.794192503E-01
 0.231664774E+01   0.983030865E-01   0.171183951E+01   0.722047827E-01  -0.786726317E-01
 0.241179288E+01   0.971066614E-01   0.170617323E+01   0.647430006E-01  -0.608525938E-01
 0.250765110E+01   0.960155970E-01   0.170118787E+01   0.568723967E-01  -0.597037113E-01
 0.260412873E+01   0.949987342E-01   0.169694284E+01   0.486356278E-01  -0.400399257E-01
 0.270113151E+01   0.939568408E-01   0.169355843E+01   0.400591180E-01  -0.405297311E-01
 0.279856465E+01   0.933490106E-01   0.169063698E+01   0.313968989E-01  -0.246708123E-01
 0.289633297E+01   0.926077708E-01   0.168871117E+01   0.224859906E-01  -0.223610512E-01
 0.299434092E+01   0.922085429E-01   0.168733685E+01   0.135285292E-01  -0.759803317E-02
 0.309249275E+01   0.919526429E-01   0.168670575E+01   0.451333125E-02  -0.713507040E-02
 0.319069256E+01   0.919526438E-01   0.168670575E+01  -0.451333130E-02   0.713514653E-02
 0.328884439E+01   0.922085278E-01   0.168733686E+01  -0.135285257E-01   0.759787836E-02
 0.338685234E+01   0.926113967E-01   0.168870766E+01  -0.224868923E-01   0.222437364E-01
 0.348462065E+01   0.933490042E-01   0.169063698E+01  -0.313968962E-01   0.246751603E-01
 0.358205380E+01   0.939568205E-01   0.169355845E+01  -0.400591094E-01   0.405301435E-01
 0.367905658E+01   0.949986795E-01   0.169694289E+01  -0.486355998E-01   0.400388661E-01
 0.377553421E+01   0.960155855E-01   0.170118788E+01  -0.568723899E-01   0.597038347E-01
 0.387139242E+01   0.971066369E-01   0.170617325E+01  -0.647429843E-01   0.608527334E-01
 0.396653756E+01   0.983030803E-01   0.171183951E+01  -0.722047780E-01   0.786724665E-01
 0.406087666E+01   0.993269959E-01   0.171831695E+01  -0.789817744E-01   0.794189372E-01
 0.415431754E+01   0.100493218E+00   0.172533115E+01  -0.852460922E-01   0.892436040E-01
 0.424676890E+01   0.101160836E+00   0.173312881E+01  -0.903916536E-01   0.100392028E+00
 0.433814041E+01   0.101764420E+00   0.174134520E+01  -0.947205394E-01   0.105185947E+00
 0.442834280E+01   0.102248656E+00   0.174989330E+01  -0.981515146E-01   0.108579717E+00
 0.451728792E+01   0.102471948E+00   0.175868241E+01  -0.100527978E+00   0.110805067E+00
 0.460488886E+01   0.102347461E+00   0.176756747E+01  -0.101756752E+00   0.111947189E+00
 0.469106005E+01   0.101846943E+00   0.177637617E+01  -0.101823779E+00   0.111700090E+00
 0.477571727E+01   0.101029211E+00   0.178494133E+01  -0.100826689E+00   0.108705673E+00
 0.485877781E+01   0.100003906E+00   0.179313465E+01  -0.989343196E-01   0.103179307E+00
 0.494016052E+01   0.988906503E-01   0.180087777E+01  -0.963365295E-01   0.966884215E-01
 0.501978587E+01   0.977595279E-01   0.180812790E+01  -0.931768593E-01   0.929469349E-01
 0.509757607E+01   0.965008837E-01   0.181480624E+01  -0.894300345E-01   0.888398334E-01
 0.517345511E+01   0.953326732E-01   0.182096127E+01  -0.853779405E-01   0.772039299E-01
 0.524734885E+01   0.938792174E-01   0.182640781E+01  -0.807632735E-01   0.736830959E-01
 0.531918509E+01   0.924934962E-01   0.183129109E+01  -0.759813935E-01   0.668219381E-01
 0.538889363E+01   0.915010860E-01   0.183583405E+01  -0.713492012E-01   0.667576224E-01
 0.545640637E+01   0.903519628E-01   0.183973799E+01  -0.664771185E-01   0.500207994E-01
 0.552165734E+01   0.890828944E-01   0.184302417E+01  -0.614697372E-01   0.502707672E-01
 0.558458278E+01   0.882501256E-01   0.184612445E+01  -0.567578087E-01   0.493210446E-01
 0.564512122E+01   0.876027862E-01   0.184891500E+01  -0.521792190E-01   0.426133997E-01
 0.570321349E+01   0.865567223E-01   0.185095053E+01  -0.474329033E-01   0.340821295E-01
 0.575880285E+01   0.857875767E-01   0.185280820E+01  -0.429519457E-01   0.333614277E-01
 0.581183497E+01   0.853019168E-01   0.185454783E+01  -0.387347304E-01   0.331751110E-01
 0.586225804E+01   0.850354926E-01   0.185616060E+01  -0.347455252E-01   0.300872971E-01
 0.591002278E+01   0.844850483E-01   0.185721833E+01  -0.307999748E-01   0.186617398E-01
 0.595508254E+01   0.839774498E-01   0.185804528E+01  -0.270615627E-01   0.183306000E-01
 0.599739328E+01   0.836606945E-01   0.185881488E+01  -0.235854085E-01   0.181482639E-01
 0.603691365E+01   0.835032766E-01   0.185953144E+01  -0.203570742E-01   0.189396357E-01
 0.607360506E+01   0.834198255E-01   0.186014197E+01  -0.173557534E-01   0.120774023E-01
 0.610743164E+01   0.831689762E-01   0.186043531E+01  -0.145423405E-01   0.586875064E-02
 0.613836035E+01   0.829321497E-01   0.186061156E+01  -0.119685656E-01   0.620041721E-02
 0.616636096E+01   0.828016358E-01   0.186078483E+01  -0.965124567E-02   0.616604940E-02
 0.619140611E+01   0.827376459E-01   0.186093700E+01  -0.758291869E-02   0.614056431E-02
 0.621347135E+01   0.827246076E-01   0.186107124E+01  -0.576241808E-02   0.614781106E-02
 0.623253511E+01   0.827457773E-01   0.186118724E+01  -0.418929499E-02   0.614419073E-02
 0.624857876E+01   0.827868785E-01   0.186128489E+01  -0.286444045E-02   0.614721482E-02
 0.626158666E+01   0.828359123E-01   0.186136416E+01  -0.178884219E-02   0.615028322E-02
 0.627154613E+01   0.828829661E-01   0.186142492E+01  -0.964427776E-03   0.615193418E-02
 0.627844763E+01   0.829204110E-01   0.186146705E+01  -0.392692612E-03   0.615272618E-02
 0.628228595E+01   0.829429503E-01   0.186149049E+01  -0.745582462E-04   0.615304289E-02
 0.899353865E-03   0.102691702E+00   0.188123924E+01   0.923114204E-04  -0.598862937E-02
 0.473767679E-02   0.102669192E+00   0.188121561E+01   0.486222131E-03  -0.598959060E-02
 0.116391775E-01   0.102632517E+00   0.188117313E+01   0.119424027E-02  -0.599110317E-02
 0.215986473E-01   0.102588196E+00   0.188111184E+01   0.221539825E-02  -0.599279365E-02
 0.346065430E-01   0.102545620E+00   0.188103180E+01   0.354809395E-02  -0.599411840E-02
 0.506501997E-01   0.102517002E+00   0.188093312E+01   0.519026722E-02  -0.598938813E-02
 0.697139564E-01   0.102517684E+00   0.188081624E+01   0.714118182E-02  -0.596073687E-02
 0.917791922E-01   0.102564718E+00   0.188068063E+01   0.940009640E-02  -0.607698421E-02
 0.116824351E+00   0.102674966E+00   0.188052273E+01   0.119674191E-01  -0.587720347E-02
 0.144824962E+00   0.102903066E+00   0.188037328E+01   0.148514910E-01  -0.564598677E-02
 0.175753667E+00   0.103075244E+00   0.188003498E+01   0.180225064E-01  -0.150540654E-01
 0.209580248E+00   0.103155990E+00   0.187944638E+01   0.214613986E-01  -0.181874266E-01
 0.246271653E+00   0.103340914E+00   0.187877051E+01   0.251934467E-01  -0.177906044E-01
 0.285792031E+00   0.103700696E+00   0.187804202E+01   0.292350737E-01  -0.177284778E-01
 0.328102769E+00   0.104244359E+00   0.187723090E+01   0.335929323E-01  -0.200591636E-01
 0.373162524E+00   0.104573448E+00   0.187592426E+01   0.381233347E-01  -0.329422285E-01
 0.420927270E+00   0.104974522E+00   0.187435890E+01   0.428933382E-01  -0.321996981E-01
 0.471350337E+00   0.105660131E+00   0.187268609E+01   0.479791918E-01  -0.317710858E-01
 0.524382457E+00   0.106467554E+00   0.187070967E+01   0.533056174E-01  -0.437203638E-01
 0.579971813E+00   0.107201035E+00   0.186821880E+01   0.587463408E-01  -0.432647666E-01
 0.638064089E+00   0.108199072E+00   0.186545848E+01   0.644478976E-01  -0.484892828E-01
 0.698602525E+00   0.109327070E+00   0.186226415E+01   0.703131686E-01  -0.577192422E-01
 0.761527970E+00   0.110385635E+00   0.185844262E+01   0.761693318E-01  -0.589106600E-01
 0.826778940E+00   0.111708833E+00   0.185420203E+01   0.821904224E-01  -0.658452886E-01
 0.894291679E+00   0.113199449E+00   0.184941857E+01   0.882689981E-01  -0.741978904E-01
 0.964000221E+00   0.114508627E+00   0.184384488E+01   0.940664177E-01  -0.822795661E-01
 0.103583646E+01   0.116259145E+00   0.183781722E+01   0.100016497E+00  -0.859071704E-01
 0.110973019E+01   0.117809722E+00   0.183096122E+01   0.105507997E+00  -0.955091494E-01
 0.118560923E+01   0.119279707E+00   0.182336516E+01   0.110539755E+00  -0.104496086E+00
 0.126339943E+01   0.120921777E+00   0.181513607E+01   0.115253446E+00  -0.112056012E+00
 0.134302479E+01   0.122583065E+00   0.180622771E+01   0.119416995E+00  -0.119597177E+00