 TITLE="poloidal viscosity for solution of GS equation with flow"
 Variables ="theta", "r", "R [m] ","z [m]", "viscosity"
 ZONE I=         100,J=          44,F=Point
 0.899353865E-03   0.335116879E-01   0.178260393E+01  -0.171572128E-01  -0.102305789E-01
 0.473767679E-02   0.334655811E-01   0.178255744E+01  -0.170288786E-01  -0.102090531E-01
 0.116391775E-01   0.333843616E-01   0.178247432E+01  -0.167989230E-01  -0.101698959E-01
 0.215986473E-01   0.332709673E-01   0.178235544E+01  -0.164688803E-01  -0.101123241E-01
 0.346065430E-01   0.331296477E-01   0.178220208E+01  -0.160410254E-01  -0.100351385E-01
 0.506501997E-01   0.329658769E-01   0.178201586E+01  -0.155183047E-01  -0.995229720E-02
 0.697139564E-01   0.327844460E-01   0.178179708E+01  -0.149036340E-01  -0.991652957E-02
 0.917791922E-01   0.325912188E-01   0.178154631E+01  -0.142003389E-01  -0.987049346E-02
 0.116824351E+00   0.323935229E-01   0.178126498E+01  -0.134115960E-01  -0.981768384E-02
 0.144824962E+00   0.321988684E-01   0.178095405E+01  -0.125404262E-01  -0.977031919E-02
 0.175753667E+00   0.320151793E-01   0.178061425E+01  -0.115894787E-01  -0.972932441E-02
 0.209580248E+00   0.318510474E-01   0.178024636E+01  -0.105607545E-01  -0.969027705E-02
 0.246271653E+00   0.317155178E-01   0.177985086E+01  -0.945542107E-02  -0.966341533E-02
 0.285792031E+00   0.316171497E-01   0.177942698E+01  -0.827389886E-02  -0.968117163E-02
 0.328102769E+00   0.315690933E-01   0.177897730E+01  -0.701422422E-02  -0.946096481E-02
 0.373162524E+00   0.315590178E-01   0.177847933E+01  -0.568203905E-02  -0.111869684E-01
 0.420927270E+00   0.314818851E-01   0.177782608E+01  -0.432353509E-02  -0.124404872E-01
 0.471350337E+00   0.314749357E-01   0.177713504E+01  -0.289488102E-02  -0.124826582E-01
 0.524382457E+00   0.315489957E-01   0.177640224E+01  -0.139161761E-02  -0.124920007E-01
 0.579971813E+00   0.316411279E-01   0.177555964E+01   0.151585794E-03  -0.189015728E-01
 0.638064089E+00   0.313499050E-01   0.177427406E+01   0.148601576E-02  -0.198211981E-01
 0.698602525E+00   0.311521645E-01   0.177294676E+01   0.284814545E-02  -0.197262872E-01
 0.761527970E+00   0.310658482E-01   0.177157717E+01   0.424899146E-02  -0.197142484E-01
 0.826778940E+00   0.311037449E-01   0.177015729E+01   0.569733481E-02  -0.198504161E-01
 0.894291679E+00   0.312425420E-01   0.176865245E+01   0.717442053E-02  -0.225796149E-01
 0.964000221E+00   0.311383174E-01   0.176684852E+01   0.839215791E-02  -0.238408747E-01
 0.103583646E+01   0.311616179E-01   0.176497866E+01   0.962067044E-02  -0.239157637E-01
 0.110973019E+01   0.313532302E-01   0.176304140E+01   0.108919617E-01  -0.240864647E-01
 0.118560923E+01   0.317331027E-01   0.176101538E+01   0.122206495E-01  -0.244208737E-01
 0.126339943E+01   0.322946002E-01   0.175886437E+01   0.135932916E-01  -0.276086764E-01
 0.134302479E+01   0.323590395E-01   0.175639918E+01   0.143359393E-01  -0.288830203E-01
 0.142440750E+01   0.326165548E-01   0.175384991E+01   0.150803689E-01  -0.290922644E-01
 0.150746804E+01   0.331111315E-01   0.175118773E+01   0.158574301E-01  -0.295495388E-01
 0.159212526E+01   0.336338044E-01   0.174837564E+01   0.164388273E-01  -0.313962391E-01
 0.167829644E+01   0.335985997E-01   0.174548733E+01   0.162173194E-01  -0.313852809E-01
 0.176589739E+01   0.338352084E-01   0.174253274E+01   0.160059506E-01  -0.315698196E-01
 0.185484251E+01   0.343422207E-01   0.173946824E+01   0.157788099E-01  -0.313798537E-01
 0.194504489E+01   0.341600318E-01   0.173660428E+01   0.146082368E-01  -0.295529333E-01
 0.203641640E+01   0.341831425E-01   0.173374483E+01   0.133567962E-01  -0.295693453E-01
 0.212886777E+01   0.344926120E-01   0.173082684E+01   0.120721190E-01  -0.299364733E-01
 0.222230865E+01   0.346508325E-01   0.172808032E+01   0.103658707E-01  -0.257812644E-01
 0.231664774E+01   0.347165431E-01   0.172553372E+01   0.831234657E-02  -0.258114822E-01
 0.241179288E+01   0.350905211E-01   0.172293903E+01   0.620825715E-02  -0.261115759E-01
 0.250765110E+01   0.358033401E-01   0.172024548E+01   0.401981115E-02  -0.262814120E-01
 0.260412873E+01   0.363501282E-01   0.171786717E+01   0.142250743E-02  -0.229845804E-01
 0.270113151E+01   0.365879754E-01   0.171599643E+01  -0.158779013E-02  -0.131765863E-01
 0.279856465E+01   0.365979085E-01   0.171462653E+01  -0.487798638E-02  -0.135416688E-01
 0.289633297E+01   0.369555225E-01   0.171324266E+01  -0.821423922E-02  -0.136763080E-01
 0.299434092E+01   0.376802010E-01   0.171181984E+01  -0.116589047E-01  -0.139504201E-01
 0.309249275E+01   0.388107274E-01   0.171032831E+01  -0.152823418E-01  -0.145260565E-01
 0.319069256E+01   0.395041873E-01   0.170963569E+01  -0.191265167E-01   0.296635816E-04
 0.328884439E+01   0.398415582E-01   0.170968186E+01  -0.230328455E-01   0.487100058E-03
 0.338685234E+01   0.405785900E-01   0.170972800E+01  -0.270401326E-01   0.517268098E-03
 0.348462065E+01   0.417453092E-01   0.170977902E+01  -0.312279873E-01   0.740260775E-03
 0.358205380E+01   0.428774634E-01   0.171030724E+01  -0.354684489E-01   0.170995942E-01
 0.367905658E+01   0.431790530E-01   0.171200104E+01  -0.392932469E-01   0.170188584E-01
 0.377553421E+01   0.438880312E-01   0.171373173E+01  -0.431833163E-01   0.173039235E-01
 0.387139242E+01   0.450368463E-01   0.171552599E+01  -0.472143500E-01   0.176581320E-01
 0.396653756E+01   0.466124846E-01   0.171746072E+01  -0.514242576E-01   0.245804461E-01
 0.406087666E+01   0.471904877E-01   0.172047625E+01  -0.547115317E-01   0.352499708E-01
 0.415431754E+01   0.474652790E-01   0.172395699E+01  -0.574510907E-01   0.357351523E-01
 0.424676890E+01   0.481550972E-01   0.172747176E+01  -0.602160039E-01   0.360373302E-01
 0.433814041E+01   0.487395646E-01   0.173127449E+01  -0.625533118E-01   0.426116525E-01
 0.442834280E+01   0.490813319E-01   0.173533761E+01  -0.643019425E-01   0.426691708E-01
 0.451728792E+01   0.497172620E-01   0.173945434E+01  -0.659614587E-01   0.453331427E-01
 0.460488886E+01   0.494245275E-01   0.174378924E+01  -0.663265380E-01   0.461558864E-01
 0.469106005E+01   0.494902100E-01   0.174803775E+01  -0.666662840E-01   0.462210082E-01
 0.477571727E+01   0.487751183E-01   0.175217903E+01  -0.658646746E-01   0.436717485E-01
 0.485877781E+01   0.480955069E-01   0.175610764E+01  -0.647684403E-01   0.430712564E-01
 0.494016052E+01   0.474797238E-01   0.175981310E+01  -0.634408569E-01   0.373800449E-01
 0.501978587E+01   0.463163072E-01   0.176310655E+01  -0.613325347E-01   0.359293026E-01
 0.509757607E+01   0.455222725E-01   0.176619642E+01  -0.593741266E-01   0.351730471E-01
 0.517345511E+01   0.449094076E-01   0.176907253E+01  -0.574072494E-01   0.303957697E-01
 0.524734885E+01   0.439711856E-01   0.177150906E+01  -0.550152594E-01   0.283634459E-01
 0.531918509E+01   0.433074148E-01   0.177378803E+01  -0.527633286E-01   0.283686455E-01
 0.538889363E+01   0.424467715E-01   0.177566654E+01  -0.502862037E-01   0.167068768E-01
 0.545640637E+01   0.412857077E-01   0.177705295E+01  -0.475634487E-01   0.171445526E-01
 0.552165734E+01   0.404148566E-01   0.177834402E+01  -0.450745035E-01   0.162024306E-01
 0.558458278E+01   0.394896327E-01   0.177933111E+01  -0.425850177E-01   0.126244338E-01
 0.564512122E+01   0.387420325E-01   0.178021179E+01  -0.402637123E-01   0.123822457E-01
 0.570321349E+01   0.381757135E-01   0.178102539E+01  -0.381076600E-01   0.120425646E-01
 0.575880285E+01   0.377668097E-01   0.178178446E+01  -0.360963943E-01   0.121127232E-01
 0.581183497E+01   0.374257785E-01   0.178243699E+01  -0.341819804E-01   0.494542402E-02
 0.586225804E+01   0.365566918E-01   0.178245804E+01  -0.321244220E-01   0.635104820E-03
 0.591002278E+01   0.358507363E-01   0.178247574E+01  -0.302571173E-01   0.295501440E-03
 0.595508254E+01   0.352852088E-01   0.178249519E+01  -0.285579183E-01   0.335635191E-03
 0.599739328E+01   0.348326842E-01   0.178251208E+01  -0.270072784E-01   0.333473325E-03
 0.603691365E+01   0.344752683E-01   0.178252735E+01  -0.255920339E-01   0.325990940E-03
 0.607360506E+01   0.341971458E-01   0.178254113E+01  -0.243020043E-01   0.321518165E-03
 0.610743164E+01   0.339847258E-01   0.178255346E+01  -0.231295577E-01   0.312617636E-03
 0.613836035E+01   0.338268225E-01   0.178256497E+01  -0.220691610E-01   0.337886190E-03
 0.616636096E+01   0.337109121E-01   0.178257340E+01  -0.211166366E-01   0.190890085E-03
 0.619140611E+01   0.336272839E-01   0.178257802E+01  -0.202692692E-01   0.259089459E-03
 0.621347135E+01   0.335751485E-01   0.178258585E+01  -0.195260940E-01   0.329524060E-03
 0.623253511E+01   0.335435105E-01   0.178259276E+01  -0.188855919E-01   0.307508381E-03
 0.624857876E+01   0.335260461E-01   0.178259823E+01  -0.183473362E-01   0.304328340E-03
 0.626158666E+01   0.335182366E-01   0.178260268E+01  -0.179111538E-01   0.305221333E-03
 0.627154613E+01   0.335161059E-01   0.178260610E+01  -0.175773212E-01   0.305870113E-03
 0.627844763E+01   0.335165872E-01   0.178260847E+01  -0.173460548E-01   0.306301777E-03
 0.628228595E+01   0.335175485E-01   0.178260980E+01  -0.172174576E-01   0.306535477E-03
 0.899353865E-03   0.523290072E-01   0.180142124E+01  -0.171402924E-01  -0.104906480E-01
 0.473767679E-02   0.522826397E-01   0.180137429E+01  -0.169397422E-01  -0.104839591E-01
 0.116391775E-01   0.522013669E-01   0.180129005E+01  -0.165799322E-01  -0.104715899E-01
 0.215986473E-01   0.520888370E-01   0.180116892E+01  -0.160624835E-01  -0.104529439E-01
 0.346065430E-01   0.519503213E-01   0.180101149E+01  -0.153898343E-01  -0.104271227E-01
 0.506501997E-01   0.517926566E-01   0.180081850E+01  -0.145651418E-01  -0.103971485E-01
 0.697139564E-01   0.516235967E-01   0.180059047E+01  -0.135913376E-01  -0.103762378E-01
 0.917791922E-01   0.514522980E-01   0.180032801E+01  -0.124717163E-01  -0.103527841E-01
 0.116824351E+00   0.512892043E-01   0.180003187E+01  -0.112091460E-01  -0.103289427E-01
 0.144824962E+00   0.511457023E-01   0.179970253E+01  -0.980604033E-02  -0.103109341E-01
 0.175753667E+00   0.510342101E-01   0.179934030E+01  -0.826400226E-02  -0.103005870E-01
 0.209580248E+00   0.509681122E-01   0.179894511E+01  -0.658346683E-02  -0.103030685E-01
 0.246271653E+00   0.509613133E-01   0.179851598E+01  -0.476351060E-02  -0.104015659E-01
 0.285792031E+00   0.510072217E-01   0.179803058E+01  -0.280756842E-02  -0.118760185E-01
 0.328102769E+00   0.510845750E-01   0.179745146E+01  -0.724642323E-03  -0.114386828E-01
 0.373162524E+00   0.508757838E-01   0.179646681E+01   0.135982981E-02  -0.232382339E-01
 0.420927270E+00   0.505808600E-01   0.179525797E+01   0.348029540E-02  -0.221684894E-01
 0.471350337E+00   0.503970023E-01   0.179399377E+01   0.569743602E-02  -0.221493725E-01
 0.524382457E+00   0.503406939E-01   0.179266886E+01   0.801715507E-02  -0.221997607E-01
 0.579971813E+00   0.504304676E-01   0.179127625E+01   0.104485767E-01  -0.223325114E-01
 0.638064089E+00   0.506944951E-01   0.178981266E+01   0.130083861E-01  -0.225779310E-01
 0.698602525E+00   0.511275474E-01   0.178824281E+01   0.156951870E-01  -0.252433754E-01
 0.761527970E+00   0.511966090E-01   0.178614756E+01   0.181396862E-01  -0.332576975E-01
 0.826778940E+00   0.510942257E-01   0.178369579E+01   0.204054361E-01  -0.334852641E-01
 0.894291679E+00   0.512204842E-01   0.178115997E+01   0.227526265E-01  -0.336897184E-01
 0.964000221E+00   0.515580851E-01   0.177849246E+01   0.251667031E-01  -0.360543065E-01
 0.103583646E+01   0.516945398E-01   0.177544647E+01   0.272849214E-01  -0.386422615E-01
 0.110973019E+01   0.520854533E-01   0.177226522E+01   0.294592976E-01  -0.390167234E-01
 0.118560923E+01   0.527804087E-01   0.176892302E+01   0.317259869E-01  -0.408737063E-01
 0.126339943E+01   0.531094870E-01   0.176516204E+01   0.334326207E-01  -0.445366879E-01
 0.134302479E+01   0.535525563E-01   0.176118512E+01   0.349820119E-01  -0.462811278E-01
 0.142440750E+01   0.538079769E-01   0.175694091E+01   0.360451598E-01  -0.491336075E-01
 0.150746804E+01   0.540144992E-01   0.175251062E+01   0.367188954E-01  -0.492235329E-01
 0.159212526E+01   0.544151789E-01   0.174793230E+01   0.372154763E-01  -0.509233315E-01
 0.167829644E+01   0.545583096E-01   0.174323852E+01   0.370560391E-01  -0.508134644E-01
 0.176589739E+01   0.549997551E-01   0.173843007E+01   0.367690487E-01  -0.508654024E-01
 0.185484251E+01   0.551203057E-01   0.173364523E+01   0.357242713E-01  -0.507861689E-01
 0.194504489E+01   0.555805424E-01   0.172877333E+01   0.345460029E-01  -0.491453851E-01
 0.203641640E+01   0.553099828E-01   0.172425938E+01   0.322345520E-01  -0.464217231E-01
 0.212886777E+01   0.554220608E-01   0.171974301E+01   0.298257118E-01  -0.452240454E-01
 0.222230865E+01   0.551838462E-01   0.171562939E+01   0.266931097E-01  -0.418704847E-01
 0.231664774E+01   0.553734858E-01   0.171151611E+01   0.234852259E-01  -0.421428584E-01
 0.241179288E+01   0.556399799E-01   0.170762328E+01   0.199089125E-01  -0.378259551E-01
 0.250765110E+01   0.558227495E-01   0.170411611E+01   0.158781268E-01  -0.283881943E-01
 0.260412873E+01   0.557508257E-01   0.170120179E+01   0.113548731E-01  -0.296135086E-01
 0.270113151E+01   0.559089710E-01   0.169851952E+01   0.664983537E-02  -0.251874085E-01
 0.279856465E+01   0.563933821E-01   0.169598429E+01   0.177990258E-02  -0.264605085E-01
 0.289633297E+01   0.565994344E-01   0.169418660E+01  -0.344453628E-02  -0.136769678E-01
 0.299434092E+01   0.568908536E-01   0.169281708E+01  -0.884032363E-02  -0.137566031E-01
 0.309249275E+01   0.577315595E-01   0.169143028E+01  -0.143535112E-01  -0.134713462E-01
 0.319069256E+01   0.584141010E-01   0.169074856E+01  -0.200546418E-01   0.113608383E-03
 0.328884439E+01   0.589234884E-01   0.169080643E+01  -0.258325712E-01   0.631809210E-03
 0.338685234E+01   0.600168482E-01   0.169087136E+01  -0.317595931E-01   0.180765857E-03
 0.348462065E+01   0.608449195E-01   0.169179213E+01  -0.376519301E-01   0.158045711E-01
 0.358205380E+01   0.615905792E-01   0.169338019E+01  -0.434468835E-01   0.160348877E-01
 0.367905658E+01   0.629530503E-01   0.169501509E+01  -0.494168871E-01   0.151805517E-01
 0.377553421E+01   0.640120505E-01   0.169751782E+01  -0.551032745E-01   0.297815185E-01
 0.387139242E+01   0.650865928E-01   0.170058256E+01  -0.605817133E-01   0.346129451E-01
 0.396653756E+01   0.662705176E-01   0.170412125E+01  -0.658636939E-01   0.357842333E-01
 0.406087666E+01   0.675061853E-01   0.170815762E+01  -0.708663778E-01   0.458753920E-01
 0.415431754E+01   0.681407173E-01   0.171300832E+01  -0.749896293E-01   0.521364051E-01
 0.424676890E+01   0.690442485E-01   0.171809329E+01  -0.788814954E-01   0.520976414E-01
 0.433814041E+01   0.697576229E-01   0.172359075E+01  -0.821165055E-01   0.587217861E-01
 0.442834280E+01   0.707236744E-01   0.172927268E+01  -0.850771103E-01   0.614330463E-01
 0.451728792E+01   0.707802334E-01   0.173537026E+01  -0.866246991E-01   0.652894359E-01
 0.460488886E+01   0.707802658E-01   0.174149756E+01  -0.875589570E-01   0.658626857E-01
 0.469106005E+01   0.706058085E-01   0.174758717E+01  -0.877770817E-01   0.660912217E-01
 0.477571727E+01   0.701191049E-01   0.175352981E+01  -0.871658756E-01   0.640035762E-01
 0.485877781E+01   0.697946123E-01   0.175927354E+01  -0.862353296E-01   0.619445329E-01
 0.494016052E+01   0.686775487E-01   0.176460005E+01  -0.840911083E-01   0.578452116E-01
 0.501978587E+01   0.677328103E-01   0.176958668E+01  -0.817451318E-01   0.522200058E-01
 0.509757607E+01   0.664659143E-01   0.177406569E+01  -0.787831632E-01   0.501026518E-01
 0.517345511E+01   0.656158071E-01   0.177828545E+01  -0.759511751E-01   0.480181655E-01
 0.524734885E+01   0.645112695E-01   0.178198053E+01  -0.726856713E-01   0.427914221E-01
 0.531918509E+01   0.637387497E-01   0.178543897E+01  -0.695470900E-01   0.425313942E-01
 0.538889363E+01   0.626223659E-01   0.178829864E+01  -0.660178523E-01   0.316433822E-01
 0.545640637E+01   0.612483221E-01   0.179057266E+01  -0.622509759E-01   0.277831605E-01
 0.552165734E+01   0.601873871E-01   0.179265482E+01  -0.587183324E-01   0.270678632E-01
 0.558458278E+01   0.594271111E-01   0.179459811E+01  -0.554077228E-01   0.265479827E-01
 0.564512122E+01   0.589554649E-01   0.179644885E+01  -0.523028358E-01   0.256437231E-01
 0.570321349E+01   0.580113498E-01   0.179761760E+01  -0.489774099E-01   0.147885127E-01
 0.575880285E+01   0.570894288E-01   0.179851075E+01  -0.457708376E-01   0.122263888E-01
 0.581183497E+01   0.562987747E-01   0.179925199E+01  -0.427520277E-01   0.119119976E-01
 0.586225804E+01   0.557169291E-01   0.179994567E+01  -0.399536817E-01   0.117770516E-01
 0.591002278E+01   0.553032308E-01   0.180058947E+01  -0.373488104E-01   0.116092444E-01
 0.595508254E+01   0.550390446E-01   0.180119558E+01  -0.349225776E-01   0.113019590E-01
 0.599739328E+01   0.544522797E-01   0.180133582E+01  -0.325385639E-01  -0.779574176E-03
 0.603691365E+01   0.538813520E-01   0.180134791E+01  -0.303230937E-01   0.384103444E-03
 0.607360506E+01   0.534374705E-01   0.180136045E+01  -0.283049108E-01   0.294891714E-03
 0.610743164E+01   0.530983769E-01   0.180137267E+01  -0.264715772E-01   0.291609137E-03
 0.613836035E+01   0.528443271E-01   0.180138338E+01  -0.248137582E-01   0.289077272E-03
 0.616636096E+01   0.526596213E-01   0.180139295E+01  -0.233252445E-01   0.286606320E-03
 0.619140611E+01   0.525302233E-01   0.180140140E+01  -0.220017334E-01   0.284752242E-03
 0.621347135E+01   0.524439038E-01   0.180140877E+01  -0.208404593E-01   0.283379818E-03
 0.623253511E+01   0.523900233E-01   0.180141510E+01  -0.198397554E-01   0.282306663E-03
 0.624857876E+01   0.523594878E-01   0.180142040E+01  -0.189989754E-01   0.281621039E-03
 0.626158666E+01   0.523446206E-01   0.180142468E+01  -0.183177123E-01   0.281079875E-03
 0.627154613E+01   0.523392233E-01   0.180142795E+01  -0.177963503E-01   0.280633300E-03
 0.627844763E+01   0.523385282E-01   0.180143021E+01  -0.174351930E-01   0.280307487E-03
 0.628228595E+01   0.523392203E-01   0.180143146E+01  -0.172343769E-01   0.280120506E-03
 0.899353865E-03   0.758062852E-01   0.182489851E+01  -0.171191870E-01  -0.110780173E-01
 0.473767679E-02   0.757568312E-01   0.182484821E+01  -0.168285677E-01  -0.110747706E-01
 0.116391775E-01   0.756708087E-01   0.182475790E+01  -0.163068320E-01  -0.110685642E-01
 0.215986473E-01   0.755532369E-01   0.182462785E+01  -0.155557630E-01  -0.110587562E-01
 0.346065430E-01   0.754113601E-01   0.182445848E+01  -0.145780802E-01  -0.110443912E-01
 0.506501997E-01   0.752545864E-01   0.182425034E+01  -0.133773023E-01  -0.110267744E-01
 0.697139564E-01   0.750940559E-01   0.182400391E+01  -0.119564340E-01  -0.110132502E-01
 0.917791922E-01   0.749428124E-01   0.182371966E+01  -0.103188041E-01  -0.110062585E-01
 0.116824351E+00   0.748154333E-01   0.182339774E+01  -0.846698498E-02  -0.109922965E-01
 0.144824962E+00   0.747300067E-01   0.182303993E+01  -0.640230661E-02  -0.109849494E-01
 0.175753667E+00   0.746945533E-01   0.182263620E+01  -0.412723098E-02  -0.111543426E-01
 0.209580248E+00   0.747693600E-01   0.182222543E+01  -0.163107638E-02  -0.111606041E-01
 0.246271653E+00   0.747131131E-01   0.182155113E+01   0.102697804E-02  -0.192667497E-01
 0.285792031E+00   0.745101055E-01   0.182058013E+01   0.381841881E-02  -0.213499852E-01
 0.328102769E+00   0.744102917E-01   0.181953318E+01   0.679119388E-02  -0.212442828E-01
 0.373162524E+00   0.744476378E-01   0.181841635E+01   0.995344825E-02  -0.214997241E-01
 0.420927270E+00   0.745755932E-01   0.181715832E+01   0.132844939E-01  -0.244287874E-01
 0.471350337E+00   0.748107934E-01   0.181574539E+01   0.167834797E-01  -0.278692532E-01
 0.524382457E+00   0.747075197E-01   0.181376157E+01   0.202171502E-01  -0.333745414E-01
 0.579971813E+00   0.747395821E-01   0.181161025E+01   0.237700501E-01  -0.334005774E-01
 0.638064089E+00   0.750206349E-01   0.180935250E+01   0.274982185E-01  -0.333762709E-01
 0.698602525E+00   0.754330726E-01   0.180685454E+01   0.313272810E-01  -0.379786515E-01
 0.761527970E+00   0.758416472E-01   0.180398548E+01   0.351451647E-01  -0.443737524E-01
 0.826778940E+00   0.760238383E-01   0.180057936E+01   0.387474763E-01  -0.453198270E-01
 0.894291679E+00   0.764178538E-01   0.179693561E+01   0.424004345E-01  -0.511076247E-01
 0.964000221E+00   0.768343208E-01   0.179290612E+01   0.459304940E-01  -0.509699144E-01
 0.103583646E+01   0.776524911E-01   0.178867997E+01   0.496162890E-01  -0.535568486E-01
 0.110973019E+01   0.781038453E-01   0.178384097E+01   0.527607807E-01  -0.603577105E-01
 0.118560923E+01   0.786215791E-01   0.177863252E+01   0.556736730E-01  -0.623540774E-01
 0.126339943E+01   0.789652291E-01   0.177298555E+01   0.580763273E-01  -0.654332967E-01
 0.134302479E+01   0.795552096E-01   0.176705681E+01   0.603130319E-01  -0.700946150E-01
 0.142440750E+01   0.800733853E-01   0.176077167E+01   0.620296913E-01  -0.694106332E-01
 0.150746804E+01   0.804688300E-01   0.175418480E+01   0.631201971E-01  -0.731143066E-01
 0.159212526E+01   0.809568800E-01   0.174736635E+01   0.637511427E-01  -0.751534537E-01
 0.167829644E+01   0.812689003E-01   0.174037205E+01   0.636123619E-01  -0.750478463E-01
 0.176589739E+01   0.813586596E-01   0.173331962E+01   0.626278003E-01  -0.749543885E-01
 0.185484251E+01   0.814608661E-01   0.172626346E+01   0.610093388E-01  -0.732922281E-01
 0.194504489E+01   0.816008624E-01   0.171926101E+01   0.587652678E-01  -0.720043806E-01
 0.203641640E+01   0.815283451E-01   0.171248811E+01   0.556618869E-01  -0.706719951E-01
 0.212886777E+01   0.816076078E-01   0.170587638E+01   0.520383118E-01  -0.664510666E-01
 0.222230865E+01   0.813022018E-01   0.169979127E+01   0.474614080E-01  -0.600849865E-01
 0.231664774E+01   0.808991036E-01   0.169419435E+01   0.422339124E-01  -0.571178769E-01
 0.241179288E+01   0.809578050E-01   0.168875411E+01   0.367892791E-01  -0.521345078E-01
 0.250765110E+01   0.806455033E-01   0.168411621E+01   0.305809725E-01  -0.439303357E-01
 0.260412873E+01   0.805429385E-01   0.167990508E+01   0.240473563E-01  -0.405486425E-01
 0.270113151E+01   0.807543433E-01   0.167604547E+01   0.172427484E-01  -0.341194152E-01
 0.279856465E+01   0.804989044E-01   0.167328317E+01   0.988767058E-02  -0.279830571E-01
 0.289633297E+01   0.809709369E-01   0.167054439E+01   0.247286376E-02  -0.276726119E-01
 0.299434092E+01   0.810974572E-01   0.166887243E+01  -0.528874031E-02  -0.129005566E-01
 0.309249275E+01   0.815808863E-01   0.166760970E+01  -0.131830242E-01  -0.124873607E-01
 0.319069256E+01   0.821905908E-01   0.166700072E+01  -0.212215560E-01   0.139825653E-03
 0.328884439E+01   0.829292655E-01   0.166706042E+01  -0.293545653E-01   0.554066495E-03
 0.338685234E+01   0.839528756E-01   0.166765168E+01  -0.375715484E-01   0.153755418E-01
 0.348462065E+01   0.849486738E-01   0.166909266E+01  -0.457590073E-01   0.148158466E-01
 0.358205380E+01   0.863284161E-01   0.167100346E+01  -0.539940478E-01   0.308375420E-01
 0.367905658E+01   0.873466489E-01   0.167406065E+01  -0.619052552E-01   0.314210878E-01
 0.377553421E+01   0.890019618E-01   0.167738319E+01  -0.699050379E-01   0.422719652E-01
 0.387139242E+01   0.901562984E-01   0.168189809E+01  -0.772964004E-01   0.495411056E-01
 0.396653756E+01   0.917532610E-01   0.168682889E+01  -0.845811736E-01   0.513040006E-01
 0.406087666E+01   0.929255567E-01   0.169274328E+01  -0.910788074E-01   0.660415563E-01
 0.415431754E+01   0.941997227E-01   0.169920867E+01  -0.970948493E-01   0.685198418E-01
 0.424676890E+01   0.954666857E-01   0.170622990E+01  -0.102490925E+00   0.749061790E-01
 0.433814041E+01   0.961679293E-01   0.171393587E+01  -0.106698773E+00   0.835070904E-01
 0.442834280E+01   0.967408151E-01   0.172198138E+01  -0.110051667E+00   0.872164597E-01
 0.451728792E+01   0.971496801E-01   0.173025848E+01  -0.112493929E+00   0.889620677E-01
 0.460488886E+01   0.972730966E-01   0.173865624E+01  -0.113898972E+00   0.899727322E-01
 0.469106005E+01   0.970493541E-01   0.174702318E+01  -0.114214609E+00   0.901386461E-01
 0.477571727E+01   0.965102686E-01   0.175520002E+01  -0.113504134E+00   0.881000477E-01
 0.485877781E+01   0.957896865E-01   0.176306462E+01  -0.111952496E+00   0.838599299E-01
 0.494016052E+01   0.949944727E-01   0.177054233E+01  -0.109728379E+00   0.791796756E-01
 0.501978587E+01   0.940709778E-01   0.177755664E+01  -0.106848500E+00   0.773722307E-01
 0.509757607E+01   0.929679573E-01   0.178402306E+01  -0.103343477E+00   0.705756075E-01
 0.517345511E+01   0.915935634E-01   0.178984201E+01  -0.992168003E-01   0.604079695E-01
 0.524734885E+01   0.901240832E-01   0.179503813E+01  -0.947200824E-01   0.602870028E-01
 0.531918509E+01   0.889807331E-01   0.179983230E+01  -0.902833132E-01   0.535359349E-01
 0.538889363E+01   0.878403951E-01   0.180408654E+01  -0.856822970E-01   0.483443745E-01
 0.545640637E+01   0.864893240E-01   0.180766741E+01  -0.808218532E-01   0.434812729E-01
 0.552165734E+01   0.851619771E-01   0.181073100E+01  -0.759514865E-01   0.387090860E-01
 0.558458278E+01   0.841958290E-01   0.181356436E+01  -0.713379229E-01   0.380696415E-01
 0.564512122E+01   0.832690055E-01   0.181597768E+01  -0.667863556E-01   0.262080935E-01
 0.570321349E+01   0.821737879E-01   0.181782879E+01  -0.622186372E-01   0.254667718E-01
 0.575880285E+01   0.812494130E-01   0.181942452E+01  -0.578670761E-01   0.236476101E-01
 0.581183497E+01   0.805942850E-01   0.182089822E+01  -0.537843755E-01   0.238009720E-01
 0.586225804E+01   0.799175612E-01   0.182203348E+01  -0.498429825E-01   0.106185689E-01
 0.591002278E+01   0.790648112E-01   0.182271575E+01  -0.460113953E-01   0.122362042E-01
 0.595508254E+01   0.784536388E-01   0.182336083E+01  -0.424688111E-01   0.121251984E-01
 0.599739328E+01   0.780340917E-01   0.182396118E+01  -0.391864969E-01   0.119225586E-01
 0.603691365E+01   0.777704597E-01   0.182451630E+01  -0.361467070E-01   0.123571826E-01
 0.607360506E+01   0.774776117E-01   0.182487432E+01  -0.333075124E-01   0.623677121E-03
 0.610743164E+01   0.769399933E-01   0.182484709E+01  -0.306399070E-01   0.398380874E-03
 0.613836035E+01   0.765733040E-01   0.182486393E+01  -0.282383912E-01   0.253997395E-03
 0.616636096E+01   0.762998426E-01   0.182487205E+01  -0.260806879E-01   0.263214546E-03
 0.619140611E+01   0.761084914E-01   0.182488043E+01  -0.241626879E-01   0.271231951E-03
 0.621347135E+01   0.759799408E-01   0.182488764E+01  -0.224799311E-01   0.266070611E-03
 0.623253511E+01   0.758989070E-01   0.182489384E+01  -0.210299733E-01   0.267031700E-03
 0.624857876E+01   0.758522163E-01   0.182489906E+01  -0.198118276E-01   0.267037449E-03
 0.626158666E+01   0.758287065E-01   0.182490329E+01  -0.188248519E-01   0.266825233E-03
 0.627154613E+01   0.758193880E-01   0.182490652E+01  -0.180695666E-01   0.266632172E-03
 0.627844763E+01   0.758173473E-01   0.182490876E+01  -0.175463838E-01   0.266482828E-03
 0.628228595E+01   0.758177769E-01   0.182491001E+01  -0.172554821E-01   0.266394261E-03
 0.899353865E-03   0.942035698E-01   0.184329579E+01  -0.171026482E-01  -0.107514677E-01
 0.473767679E-02   0.941549537E-01   0.184324613E+01  -0.167414328E-01  -0.107503209E-01
 0.116391775E-01   0.940710500E-01   0.184315690E+01  -0.160927180E-01  -0.107478995E-01
 0.215986473E-01   0.939579232E-01   0.184302824E+01  -0.151583079E-01  -0.107435786E-01
 0.346065430E-01   0.938243202E-01   0.184286041E+01  -0.139409902E-01  -0.107364333E-01
 0.506501997E-01   0.936816082E-01   0.184265373E+01  -0.124443692E-01  -0.107273762E-01
 0.697139564E-01   0.935435518E-01   0.184240859E+01  -0.106712852E-01  -0.107222298E-01
 0.917791922E-01   0.934263875E-01   0.184212544E+01  -0.862478540E-02  -0.107125064E-01
 0.116824351E+00   0.933486158E-01   0.184180459E+01  -0.630672999E-02  -0.107251926E-01
 0.144824962E+00   0.933287286E-01   0.184144400E+01  -0.371844304E-02  -0.107480472E-01
 0.175753667E+00   0.934007721E-01   0.184105402E+01  -0.855271634E-03  -0.114545318E-01
 0.209580248E+00   0.932716856E-01   0.184032313E+01   0.221714793E-02  -0.224180754E-01
 0.246271653E+00   0.931017063E-01   0.183938490E+01   0.550997361E-02  -0.208090537E-01
 0.285792031E+00   0.930732036E-01   0.183839027E+01   0.905169336E-02  -0.208541604E-01
 0.328102769E+00   0.931757921E-01   0.183729776E+01   0.128379902E-01  -0.231306999E-01
 0.373162524E+00   0.934103978E-01   0.183607390E+01   0.168670043E-01  -0.267528373E-01
 0.420927270E+00   0.932674472E-01   0.183421828E+01   0.209227780E-01  -0.330949554E-01
 0.471350337E+00   0.933188936E-01   0.183223528E+01   0.251878295E-01  -0.333730352E-01
 0.524382457E+00   0.936078611E-01   0.183012246E+01   0.296799322E-01  -0.335554858E-01
 0.579971813E+00   0.941109779E-01   0.182781407E+01   0.343854238E-01  -0.397498445E-01
 0.638064089E+00   0.942108366E-01   0.182476703E+01   0.389287230E-01  -0.459852139E-01
 0.698602525E+00   0.945397622E-01   0.182148529E+01   0.436157653E-01  -0.463491878E-01
 0.761527970E+00   0.952114318E-01   0.181800464E+01   0.485112133E-01  -0.487871146E-01
 0.826778940E+00   0.957330054E-01   0.181392751E+01   0.532484458E-01  -0.578033111E-01
 0.894291679E+00   0.962312275E-01   0.180933947E+01   0.578508012E-01  -0.574274423E-01
 0.964000221E+00   0.968020221E-01   0.180429245E+01   0.623335639E-01  -0.638868141E-01
 0.103583646E+01   0.977314863E-01   0.179891639E+01   0.668900154E-01  -0.661908103E-01
 0.110973019E+01   0.983422439E-01   0.179284493E+01   0.708859491E-01  -0.739242052E-01
 0.118560923E+01   0.990099862E-01   0.178629391E+01   0.745678580E-01  -0.798420261E-01
 0.126339943E+01   0.997302235E-01   0.177926862E+01   0.778679326E-01  -0.811810396E-01
 0.134302479E+01   0.100403156E+00   0.177176405E+01   0.806226255E-01  -0.843634274E-01