 TITLE="poloidal viscosity for solution of GS equation with flow"
 Variables ="theta", "r", "R [m] ","z [m]", "viscosity"
 ZONE I=         100,J=          44,F=Point
 0.899353865E-03   0.445746917E-01   0.186239595E+01   0.400670374E-04  -0.596301182E-02
 0.473767679E-02   0.445529822E-01   0.186237375E+01   0.210986174E-03  -0.595692771E-02
 0.116391775E-01   0.445156857E-01   0.186233393E+01   0.517974662E-03  -0.594575311E-02
 0.215986473E-01   0.444658014E-01   0.186227670E+01   0.960231833E-03  -0.592908965E-02
 0.346065430E-01   0.444076544E-01   0.186220235E+01   0.153651486E-02  -0.590635818E-02
 0.506501997E-01   0.443468508E-01   0.186211126E+01   0.224521739E-02  -0.588379176E-02
 0.697139564E-01   0.442896542E-01   0.186200335E+01   0.308512230E-02  -0.588449210E-02
 0.917791922E-01   0.442435247E-01   0.186187859E+01   0.405492739E-02  -0.588441812E-02
 0.116824351E+00   0.442172420E-01   0.186173713E+01   0.515388731E-02  -0.588489514E-02
 0.144824962E+00   0.442205991E-01   0.186157895E+01   0.638186574E-02  -0.589035304E-02
 0.175753667E+00   0.442644978E-01   0.186140389E+01   0.773964193E-02  -0.590186474E-02
 0.209580248E+00   0.443611571E-01   0.186121175E+01   0.922929307E-02  -0.592216364E-02
 0.246271653E+00   0.445235952E-01   0.186100152E+01   0.108543762E-01  -0.592260662E-02
 0.285792031E+00   0.447720310E-01   0.186077729E+01   0.126220289E-01  -0.592272377E-02
 0.328102769E+00   0.451120964E-01   0.186052695E+01   0.145371118E-01  -0.628368797E-02
 0.373162524E+00   0.455881349E-01   0.186027190E+01   0.166199659E-01  -0.857258835E-02
 0.420927270E+00   0.457797548E-01   0.185960495E+01   0.187059174E-01  -0.172717049E-01
 0.471350337E+00   0.459552613E-01   0.185876539E+01   0.208678152E-01  -0.172756665E-01
 0.524382457E+00   0.462708921E-01   0.185787498E+01   0.231667291E-01  -0.173405759E-01
 0.579971813E+00   0.466989935E-01   0.185688414E+01   0.255907818E-01  -0.224167473E-01
 0.638064089E+00   0.470585664E-01   0.185562108E+01   0.280300462E-01  -0.228798666E-01
 0.698602525E+00   0.476097245E-01   0.185427799E+01   0.306201497E-01  -0.231468087E-01
 0.761527970E+00   0.483916373E-01   0.185284600E+01   0.333918792E-01  -0.229718849E-01
 0.826778940E+00   0.489034821E-01   0.185094088E+01   0.359811534E-01  -0.338375323E-01
 0.894291679E+00   0.494076423E-01   0.184875408E+01   0.385263267E-01  -0.342716759E-01
 0.964000221E+00   0.499230633E-01   0.184628973E+01   0.410104758E-01  -0.435668781E-01
 0.103583646E+01   0.502168417E-01   0.184342216E+01   0.432009983E-01  -0.429200433E-01
 0.110973019E+01   0.508030022E-01   0.184042371E+01   0.454980721E-01  -0.435224113E-01
 0.118560923E+01   0.515963497E-01   0.183720733E+01   0.478159354E-01  -0.494118560E-01
 0.126339943E+01   0.517132345E-01   0.183346863E+01   0.492891350E-01  -0.529274036E-01
 0.134302479E+01   0.521018091E-01   0.182958678E+01   0.507560210E-01  -0.531688009E-01
 0.142440750E+01   0.520652541E-01   0.182541525E+01   0.515084924E-01  -0.578389401E-01
 0.150746804E+01   0.516362906E-01   0.182108912E+01   0.515327823E-01  -0.572480973E-01
 0.159212526E+01   0.511833015E-01   0.181673076E+01   0.511716518E-01  -0.529670538E-01
 0.167829644E+01   0.498714284E-01   0.181247034E+01   0.495835422E-01  -0.524878604E-01
 0.176589739E+01   0.489544577E-01   0.180833101E+01   0.480257616E-01  -0.492237308E-01
 0.185484251E+01   0.473089719E-01   0.180456332E+01   0.454132751E-01  -0.433485982E-01
 0.194504489E+01   0.459809352E-01   0.180101187E+01   0.427982455E-01  -0.420991494E-01
 0.203641640E+01   0.449025920E-01   0.179766109E+01   0.401224160E-01  -0.356167560E-01
 0.212886777E+01   0.435426972E-01   0.179476318E+01   0.369362889E-01  -0.335496478E-01
 0.222230865E+01   0.424177468E-01   0.179209977E+01   0.337293233E-01  -0.243908373E-01
 0.231664774E+01   0.408883454E-01   0.179007457E+01   0.300329123E-01  -0.226516166E-01
 0.241179288E+01   0.397356346E-01   0.178820599E+01   0.264925296E-01  -0.187807684E-01
 0.250765110E+01   0.386166612E-01   0.178670790E+01   0.228736396E-01  -0.168800830E-01
 0.260412873E+01   0.378870558E-01   0.178527592E+01   0.193966133E-01  -0.166441117E-01
 0.270113151E+01   0.371854667E-01   0.178418499E+01   0.158542971E-01  -0.498982440E-02
 0.279856465E+01   0.362526360E-01   0.178368070E+01   0.121932143E-01  -0.573989548E-02
 0.289633297E+01   0.356894468E-01   0.178319986E+01   0.866566718E-02  -0.560533774E-02
 0.299434092E+01   0.354805764E-01   0.178272467E+01   0.520569753E-02  -0.560767376E-02
 0.309249275E+01   0.356095149E-01   0.178225468E+01   0.174793980E-02  -0.524759775E-02
 0.319069256E+01   0.356095874E-01   0.178225461E+01  -0.174794312E-02   0.524957013E-02
 0.328884439E+01   0.354805549E-01   0.178272469E+01  -0.520569299E-02   0.560826414E-02
 0.338685234E+01   0.356929674E-01   0.178319645E+01  -0.866654311E-02   0.550227108E-02
 0.348462065E+01   0.362525381E-01   0.178368079E+01  -0.121931808E-01   0.574482364E-02
 0.358205380E+01   0.371852583E-01   0.178418518E+01  -0.158542083E-01   0.498831076E-02
 0.367905658E+01   0.378869562E-01   0.178527601E+01  -0.193965623E-01   0.166446655E-01
 0.377553421E+01   0.386164715E-01   0.178670805E+01  -0.228735276E-01   0.168779380E-01
 0.387139242E+01   0.397355019E-01   0.178820608E+01  -0.264924409E-01   0.187808067E-01
 0.396653756E+01   0.408881100E-01   0.179007472E+01  -0.300327392E-01   0.226538088E-01
 0.406087666E+01   0.424175004E-01   0.179209992E+01  -0.337291275E-01   0.243895773E-01
 0.415431754E+01   0.435425174E-01   0.179476327E+01  -0.369361363E-01   0.335511355E-01
 0.424676890E+01   0.449024084E-01   0.179766117E+01  -0.401222518E-01   0.356162747E-01
 0.433814041E+01   0.459807842E-01   0.180101193E+01  -0.427981050E-01   0.420990151E-01
 0.442834280E+01   0.473087120E-01   0.180456339E+01  -0.454130256E-01   0.433494177E-01
 0.451728792E+01   0.489542512E-01   0.180833105E+01  -0.480255589E-01   0.492227345E-01
 0.460488886E+01   0.498712391E-01   0.181247036E+01  -0.495833541E-01   0.524867270E-01
 0.469106005E+01   0.511830501E-01   0.181673077E+01  -0.511714004E-01   0.529655469E-01
 0.477571727E+01   0.516362356E-01   0.182108912E+01  -0.515327274E-01   0.572483034E-01
 0.485877781E+01   0.520651442E-01   0.182541523E+01  -0.515083836E-01   0.578389687E-01
 0.494016052E+01   0.521019447E-01   0.182958681E+01  -0.507561532E-01   0.531688163E-01
 0.501978587E+01   0.517132779E-01   0.183346864E+01  -0.492891763E-01   0.529272383E-01
 0.509757607E+01   0.515964247E-01   0.183720736E+01  -0.478160048E-01   0.494128419E-01
 0.517345511E+01   0.508031591E-01   0.184042378E+01  -0.454982125E-01   0.435232403E-01
 0.524734885E+01   0.502169355E-01   0.184342221E+01  -0.432010791E-01   0.429197033E-01
 0.531918509E+01   0.499231141E-01   0.184628976E+01  -0.410105173E-01   0.435676942E-01
 0.538889363E+01   0.494077399E-01   0.184875414E+01  -0.385264029E-01   0.342710859E-01
 0.545640637E+01   0.489035359E-01   0.185094091E+01  -0.359811931E-01   0.338374739E-01
 0.552165734E+01   0.483918038E-01   0.185284612E+01  -0.333919938E-01   0.229732345E-01
 0.558458278E+01   0.476099098E-01   0.185427813E+01  -0.306202686E-01   0.231479437E-01
 0.564512122E+01   0.470586809E-01   0.185562117E+01  -0.280301144E-01   0.228789196E-01
 0.570321349E+01   0.466990719E-01   0.185688421E+01  -0.255908247E-01   0.224165111E-01
 0.575880285E+01   0.462709704E-01   0.185787505E+01  -0.231667681E-01   0.173412509E-01
 0.581183497E+01   0.459553221E-01   0.185876545E+01  -0.208678428E-01   0.172750222E-01
 0.586225804E+01   0.457797941E-01   0.185960498E+01  -0.187059338E-01   0.172717416E-01
 0.591002278E+01   0.455882208E-01   0.186027198E+01  -0.166199981E-01   0.857096081E-02
 0.595508254E+01   0.451126267E-01   0.186052745E+01  -0.145372642E-01   0.629933917E-02
 0.599739328E+01   0.447683994E-01   0.186077380E+01  -0.126210160E-01   0.589281373E-02
 0.603691365E+01   0.445240174E-01   0.186100193E+01  -0.108544905E-01   0.595723926E-02
 0.607360506E+01   0.443611417E-01   0.186121173E+01  -0.922928428E-02   0.592067397E-02
 0.610743164E+01   0.442645447E-01   0.186140394E+01  -0.773965151E-02   0.590091792E-02
 0.613836035E+01   0.442206065E-01   0.186157895E+01  -0.638186654E-02   0.588983768E-02
 0.616636096E+01   0.442172372E-01   0.186173713E+01  -0.515388667E-02   0.588462804E-02
 0.619140611E+01   0.442435042E-01   0.186187857E+01  -0.405492565E-02   0.588345467E-02
 0.621347135E+01   0.442896080E-01   0.186200331E+01  -0.308512014E-02   0.588501878E-02
 0.623253511E+01   0.443468693E-01   0.186211128E+01  -0.224521527E-02   0.588865593E-02
 0.624857876E+01   0.444076538E-01   0.186220235E+01  -0.153651307E-02   0.589533276E-02
 0.626158666E+01   0.444654770E-01   0.186227637E+01  -0.960230542E-03   0.590084183E-02
 0.627154613E+01   0.445149207E-01   0.186233317E+01  -0.517973895E-03   0.590440528E-02
 0.627844763E+01   0.445518140E-01   0.186237258E+01  -0.210985841E-03   0.590654763E-02
 0.628228595E+01   0.445732645E-01   0.186239452E+01  -0.400669722E-04   0.590762489E-02
 0.899353865E-03   0.648026159E-01   0.188262387E+01   0.582521887E-04  -0.535022016E-02
 0.473767679E-02   0.647825492E-01   0.188260309E+01   0.306797746E-03  -0.535138962E-02
 0.116391775E-01   0.647488531E-01   0.188256573E+01   0.753422055E-03  -0.535330651E-02
 0.215986473E-01   0.647056296E-01   0.188251181E+01   0.139732085E-02  -0.535564733E-02
 0.346065430E-01   0.646587886E-01   0.188244136E+01   0.223720463E-02  -0.535793775E-02
 0.506501997E-01   0.646160138E-01   0.188235443E+01   0.327141005E-02  -0.535938127E-02
 0.697139564E-01   0.645867791E-01   0.188225117E+01   0.449897793E-02  -0.535861439E-02
 0.917791922E-01   0.645822379E-01   0.188213171E+01   0.591897447E-02  -0.536027413E-02
 0.116824351E+00   0.646151110E-01   0.188199597E+01   0.753143019E-02  -0.536670517E-02
 0.144824962E+00   0.646997462E-01   0.188184371E+01   0.933738313E-02  -0.537803292E-02
 0.175753667E+00   0.648530999E-01   0.188167532E+01   0.113395957E-01  -0.538238485E-02
 0.209580248E+00   0.650894472E-01   0.188148651E+01   0.135416421E-01  -0.538751833E-02
 0.246271653E+00   0.654485776E-01   0.188129511E+01   0.159558963E-01  -0.684251980E-02
 0.285792031E+00   0.656942550E-01   0.188085091E+01   0.185202963E-01  -0.146314433E-01
 0.328102769E+00   0.658543913E-01   0.188016266E+01   0.212215243E-01  -0.158882679E-01
 0.373162524E+00   0.661629957E-01   0.187943089E+01   0.241205003E-01  -0.160856553E-01
 0.420927270E+00   0.666375055E-01   0.187864202E+01   0.272285577E-01  -0.162382262E-01
 0.471350337E+00   0.673151870E-01   0.187779614E+01   0.305671392E-01  -0.163390565E-01
 0.524382457E+00   0.682027030E-01   0.187685935E+01   0.341484147E-01  -0.203500667E-01
 0.579971813E+00   0.686077272E-01   0.187520996E+01   0.375973601E-01  -0.309502295E-01
 0.638064089E+00   0.691781839E-01   0.187338865E+01   0.412054349E-01  -0.316589091E-01
 0.698602525E+00   0.700265043E-01   0.187144346E+01   0.450374431E-01  -0.321352374E-01
 0.761527970E+00   0.711995527E-01   0.186935413E+01   0.491298262E-01  -0.322825396E-01
 0.826778940E+00   0.723957429E-01   0.186685161E+01   0.532650776E-01  -0.467416911E-01
 0.894291679E+00   0.730786590E-01   0.186357372E+01   0.569842492E-01  -0.501212088E-01
 0.964000221E+00   0.741129123E-01   0.186008343E+01   0.608821537E-01  -0.509416387E-01
 0.103583646E+01   0.754176704E-01   0.185626967E+01   0.648810175E-01  -0.589410824E-01
 0.110973019E+01   0.764842261E-01   0.185184957E+01   0.684975156E-01  -0.644405881E-01
 0.118560923E+01   0.773568859E-01   0.184688644E+01   0.716889363E-01  -0.725399524E-01
 0.126339943E+01   0.777602354E-01   0.184134996E+01   0.741151488E-01  -0.761166943E-01
 0.134302479E+01   0.782450122E-01   0.183549018E+01   0.762239484E-01  -0.836312514E-01
 0.142440750E+01   0.784071232E-01   0.182925727E+01   0.775686299E-01  -0.819988197E-01
 0.150746804E+01   0.780609690E-01   0.182276143E+01   0.779044913E-01  -0.856033726E-01
 0.159212526E+01   0.776158580E-01   0.181616690E+01   0.775982005E-01  -0.842176404E-01
 0.167829644E+01   0.766912872E-01   0.180959184E+01   0.762484669E-01  -0.839354552E-01
 0.176589739E+01   0.753539201E-01   0.180321280E+01   0.739243329E-01  -0.783286365E-01
 0.185484251E+01   0.741145126E-01   0.179705133E+01   0.711447179E-01  -0.725593324E-01
 0.194504489E+01   0.723460261E-01   0.179137367E+01   0.673384758E-01  -0.644288820E-01
 0.203641640E+01   0.702794311E-01   0.178626759E+01   0.627977794E-01  -0.552224618E-01
 0.212886777E+01   0.683258259E-01   0.178163929E+01   0.579592988E-01  -0.543433828E-01
 0.222230865E+01   0.668020839E-01   0.177731333E+01   0.531189458E-01  -0.458810993E-01
 0.231664774E+01   0.647156270E-01   0.177390541E+01   0.475342750E-01  -0.362819479E-01
 0.241179288E+01   0.630064084E-01   0.177086211E+01   0.420076531E-01  -0.353230592E-01
 0.250765110E+01   0.617941964E-01   0.176803396E+01   0.366025308E-01  -0.298762421E-01
 0.260412873E+01   0.602932952E-01   0.176602874E+01   0.308676861E-01  -0.189653315E-01
 0.270113151E+01   0.590117399E-01   0.176444191E+01   0.251600498E-01  -0.184267342E-01
 0.279856465E+01   0.583119839E-01   0.176290650E+01   0.196126027E-01  -0.187849548E-01
 0.289633297E+01   0.575991009E-01   0.176194584E+01   0.139854431E-01  -0.606349133E-02
 0.299434092E+01   0.570119426E-01   0.176142631E+01   0.836477347E-02  -0.615427690E-02
 0.309249275E+01   0.569721475E-01   0.176091779E+01   0.279643268E-02  -0.573481936E-02
 0.319069256E+01   0.569721606E-01   0.176091778E+01  -0.279643327E-02   0.573544963E-02
 0.328884439E+01   0.570119271E-01   0.176142633E+01  -0.836477121E-02   0.615469407E-02
 0.338685234E+01   0.575990493E-01   0.176194589E+01  -0.139854306E-01   0.606406323E-02
 0.348462065E+01   0.583119688E-01   0.176290651E+01  -0.196125976E-01   0.187851071E-01
 0.358205380E+01   0.590116895E-01   0.176444195E+01  -0.251600283E-01   0.184273067E-01
 0.367905658E+01   0.602931736E-01   0.176602885E+01  -0.308676238E-01   0.189677834E-01
 0.377553421E+01   0.617941475E-01   0.176803400E+01  -0.366025019E-01   0.298757995E-01
 0.387139242E+01   0.630063220E-01   0.177086218E+01  -0.420075955E-01   0.353238821E-01
 0.396653756E+01   0.647154668E-01   0.177390552E+01  -0.475341577E-01   0.362789196E-01
 0.406087666E+01   0.668019896E-01   0.177731339E+01  -0.531188706E-01   0.458819581E-01
 0.415431754E+01   0.683257243E-01   0.178163934E+01  -0.579592127E-01   0.543442304E-01
 0.424676890E+01   0.702792572E-01   0.178626767E+01  -0.627976241E-01   0.552207711E-01
 0.433814041E+01   0.723459031E-01   0.179137372E+01  -0.673383612E-01   0.644289371E-01
 0.442834280E+01   0.741144023E-01   0.179705136E+01  -0.711446120E-01   0.725583138E-01
 0.451728792E+01   0.753538570E-01   0.180321281E+01  -0.739242710E-01   0.783287306E-01
 0.460488886E+01   0.766912237E-01   0.180959185E+01  -0.762484037E-01   0.839349149E-01
 0.469106005E+01   0.776157650E-01   0.181616690E+01  -0.775981075E-01   0.842170574E-01
 0.477571727E+01   0.780609302E-01   0.182276143E+01  -0.779044526E-01   0.856034324E-01
 0.485877781E+01   0.784071410E-01   0.182925727E+01  -0.775686475E-01   0.819988203E-01
 0.494016052E+01   0.782450128E-01   0.183549018E+01  -0.762239489E-01   0.836312117E-01
 0.501978587E+01   0.777602936E-01   0.184134998E+01  -0.741152043E-01   0.761168428E-01
 0.509757607E+01   0.773569147E-01   0.184688646E+01  -0.716889630E-01   0.725401195E-01
 0.517345511E+01   0.764843330E-01   0.185184962E+01  -0.684976112E-01   0.644413374E-01
 0.524734885E+01   0.754177762E-01   0.185626972E+01  -0.648811086E-01   0.589411273E-01
 0.531918509E+01   0.741129867E-01   0.186008348E+01  -0.608822146E-01   0.509425909E-01
 0.538889363E+01   0.730787526E-01   0.186357378E+01  -0.569843222E-01   0.501206396E-01
 0.545640637E+01   0.723958854E-01   0.186685171E+01  -0.532651822E-01   0.467427911E-01
 0.552165734E+01   0.711996590E-01   0.186935420E+01  -0.491298995E-01   0.322820721E-01
 0.558458278E+01   0.700265590E-01   0.187144350E+01  -0.450374785E-01   0.321352866E-01
 0.564512122E+01   0.691782748E-01   0.187338872E+01  -0.412054893E-01   0.316579604E-01
 0.570321349E+01   0.686077728E-01   0.187521000E+01  -0.375973853E-01   0.309499220E-01
 0.575880285E+01   0.682028013E-01   0.187685944E+01  -0.341484640E-01   0.203497370E-01
 0.581183497E+01   0.673152321E-01   0.187779618E+01  -0.305671596E-01   0.163397075E-01
 0.586225804E+01   0.666375975E-01   0.187864210E+01  -0.272285957E-01   0.162367999E-01
 0.591002278E+01   0.661630429E-01   0.187943093E+01  -0.241205175E-01   0.160854997E-01
 0.595508254E+01   0.658544205E-01   0.188016269E+01  -0.212215337E-01   0.158880188E-01
 0.599739328E+01   0.656942789E-01   0.188085093E+01  -0.185203031E-01   0.146318897E-01
 0.603691365E+01   0.654486554E-01   0.188129518E+01  -0.159559153E-01   0.684290484E-02
 0.607360506E+01   0.650895178E-01   0.188148658E+01  -0.135416568E-01   0.538714226E-02
 0.610743164E+01   0.648531450E-01   0.188167537E+01  -0.113396036E-01   0.538192969E-02
 0.613836035E+01   0.646997711E-01   0.188184373E+01  -0.933738669E-02   0.537772915E-02
 0.616636096E+01   0.646151222E-01   0.188199598E+01  -0.753143155E-02   0.536640232E-02
 0.619140611E+01   0.645822403E-01   0.188213171E+01  -0.591897464E-02   0.536023757E-02
 0.621347135E+01   0.645867810E-01   0.188225118E+01  -0.449897766E-02   0.535819215E-02
 0.623253511E+01   0.646159826E-01   0.188235440E+01  -0.327140961E-02   0.535770645E-02
 0.624857876E+01   0.646587565E-01   0.188244132E+01  -0.223720417E-02   0.536075798E-02
 0.626158666E+01   0.647057113E-01   0.188251189E+01  -0.139732049E-02   0.536335499E-02
 0.627154613E+01   0.647490936E-01   0.188256597E+01  -0.753421828E-03   0.536473865E-02
 0.627844763E+01   0.647829361E-01   0.188260348E+01  -0.306797645E-03   0.536539321E-02
 0.628228595E+01   0.648030972E-01   0.188262435E+01  -0.582521684E-04   0.536565042E-02
 0.899353865E-03   0.899802786E-01   0.190780152E+01   0.808843171E-04  -0.437917890E-02
 0.473767679E-02   0.899623876E-01   0.190778265E+01   0.426042467E-03  -0.437905534E-02
 0.116391775E-01   0.899335530E-01   0.190774873E+01   0.104646949E-02  -0.437867337E-02
 0.215986473E-01   0.898994966E-01   0.190769980E+01   0.194138094E-02  -0.437775820E-02
 0.346065430E-01   0.898684563E-01   0.190763593E+01   0.310946418E-02  -0.437591158E-02
 0.506501997E-01   0.898511361E-01   0.190755719E+01   0.454903013E-02  -0.437496067E-02
 0.697139564E-01   0.898605207E-01   0.190746352E+01   0.625948782E-02  -0.438227608E-02
 0.917791922E-01   0.899121774E-01   0.190735504E+01   0.824046263E-02  -0.436490472E-02
 0.116824351E+00   0.900247139E-01   0.190723237E+01   0.104931924E-01  -0.440935530E-02
 0.144824962E+00   0.902121572E-01   0.190708908E+01   0.130190443E-01  -0.446469322E-02
 0.175753667E+00   0.905363990E-01   0.190696283E+01   0.158310901E-01  -0.384185775E-02
 0.209580248E+00   0.907602120E-01   0.190659559E+01   0.188821722E-01  -0.138703517E-01
 0.246271653E+00   0.909478910E-01   0.190602509E+01   0.221722097E-01  -0.144634659E-01
 0.285792031E+00   0.912547177E-01   0.190537457E+01   0.257263433E-01  -0.153176718E-01
 0.328102769E+00   0.917411538E-01   0.190466862E+01   0.295631577E-01  -0.156855403E-01
 0.373162524E+00   0.924631551E-01   0.190392091E+01   0.337088945E-01  -0.182725851E-01
 0.420927270E+00   0.929672516E-01   0.190267337E+01   0.379872806E-01  -0.252008806E-01
 0.471350337E+00   0.936685808E-01   0.190127586E+01   0.425339475E-01  -0.254472621E-01
 0.524382457E+00   0.946702115E-01   0.189977116E+01   0.473990632E-01  -0.257125014E-01
 0.579971813E+00   0.959196653E-01   0.189805641E+01   0.525633277E-01  -0.350844873E-01
 0.638064089E+00   0.969912801E-01   0.189572974E+01   0.577717717E-01  -0.405107243E-01
 0.698602525E+00   0.982328435E-01   0.189304230E+01   0.631782126E-01  -0.416265123E-01
 0.761527970E+00   0.998920103E-01   0.189012176E+01   0.689278584E-01  -0.481266873E-01
 0.826778940E+00   0.101393553E+00   0.188649021E+01   0.746004407E-01  -0.561799611E-01
 0.894291679E+00   0.102952330E+00   0.188227678E+01   0.802787042E-01  -0.600376909E-01
 0.964000221E+00   0.104990115E+00   0.187768993E+01   0.862477257E-01  -0.656635219E-01
 0.103583646E+01   0.106424219E+00   0.187207703E+01   0.915556039E-01  -0.781481293E-01
 0.110973019E+01   0.108223913E+00   0.186597130E+01   0.969225747E-01  -0.886049815E-01
 0.118560923E+01   0.109854208E+00   0.185909651E+01   0.101805236E+00  -0.911415252E-01
 0.126339943E+01   0.110987272E+00   0.185140330E+01   0.105784785E+00  -0.103265552E+00
 0.134302479E+01   0.111819826E+00   0.184307146E+01   0.108931647E+00  -0.112109855E+00
 0.142440750E+01   0.112316149E+00   0.183420489E+01   0.111114793E+00  -0.117705324E+00
 0.150746804E+01   0.112318085E+00   0.182492944E+01   0.112092934E+00  -0.120537711E+00
 0.159212526E+01   0.111813692E+00   0.181543753E+01   0.111788254E+00  -0.120238838E+00
 0.167829644E+01   0.110781650E+00   0.180593623E+01   0.110142270E+00  -0.116702066E+00
 0.176589739E+01   0.109307051E+00   0.179663089E+01   0.107233398E+00  -0.111990341E+00
 0.185484251E+01   0.107552304E+00   0.178768080E+01   0.103242677E+00  -0.104477712E+00
 0.194504489E+01   0.105058497E+00   0.177941452E+01   0.977865377E-01  -0.964257300E-01
 0.203641640E+01   0.102497215E+00   0.177180256E+01   0.915857777E-01  -0.895810847E-01
 0.212886777E+01   0.100101552E+00   0.176481235E+01   0.849138944E-01  -0.749081854E-01
 0.222230865E+01   0.974636663E-01   0.175872022E+01   0.774998524E-01  -0.680083531E-01
 0.231664774E+01   0.951454393E-01   0.175325544E+01   0.698849259E-01  -0.622348716E-01
 0.241179288E+01   0.927415865E-01   0.174870025E+01   0.618326900E-01  -0.487421387E-01
 0.250765110E+01   0.907178158E-01   0.174473002E+01   0.537344244E-01  -0.452516993E-01
 0.260412873E+01   0.887928287E-01   0.174154737E+01   0.454582858E-01  -0.342415856E-01
 0.270113151E+01   0.874001592E-01   0.173876303E+01   0.372636653E-01  -0.315208219E-01
 0.279856465E+01   0.860016160E-01   0.173683007E+01   0.289258046E-01  -0.185927856E-01
 0.289633297E+01   0.850921443E-01   0.173527554E+01   0.206609316E-01  -0.189203500E-01
 0.299434092E+01   0.844037834E-01   0.173433088E+01   0.123835743E-01  -0.611715297E-02
 0.309249275E+01   0.841055985E-01   0.173381704E+01   0.412814174E-02  -0.572852361E-02
 0.319069256E+01   0.841056002E-01   0.173381704E+01  -0.412814182E-02   0.572873916E-02
 0.328884439E+01   0.844037729E-01   0.173433089E+01  -0.123835728E-01   0.611738969E-02
 0.338685234E+01   0.850921402E-01   0.173527554E+01  -0.206609306E-01   0.189204491E-01
 0.348462065E+01   0.860015970E-01   0.173683009E+01  -0.289257983E-01   0.185932496E-01
 0.358205380E+01   0.874001404E-01   0.173876305E+01  -0.372636572E-01   0.315208961E-01
 0.367905658E+01   0.887927948E-01   0.174154740E+01  -0.454582684E-01   0.342422130E-01
 0.377553421E+01   0.907177298E-01   0.174473009E+01  -0.537343737E-01   0.452489770E-01
 0.387139242E+01   0.927415260E-01   0.174870030E+01  -0.618326497E-01   0.487413251E-01
 0.396653756E+01   0.951453475E-01   0.175325550E+01  -0.698848588E-01   0.622328224E-01
 0.406087666E+01   0.974635361E-01   0.175872030E+01  -0.774997491E-01   0.680069392E-01
 0.415431754E+01   0.100101418E+00   0.176481242E+01  -0.849137812E-01   0.749045404E-01
 0.424676890E+01   0.102497134E+00   0.177180260E+01  -0.915857053E-01   0.895812593E-01
 0.433814041E+01   0.105058413E+00   0.177941456E+01  -0.977864600E-01   0.964247429E-01
 0.442834280E+01   0.107552255E+00   0.178768081E+01  -0.103242630E+00   0.104475998E+00
 0.451728792E+01   0.109307010E+00   0.179663090E+01  -0.107233358E+00   0.111990449E+00
 0.460488886E+01   0.110781599E+00   0.180593623E+01  -0.110142219E+00   0.116702032E+00
 0.469106005E+01   0.111813653E+00   0.181543753E+01  -0.111788214E+00   0.120238613E+00
 0.477571727E+01   0.112318067E+00   0.182492944E+01  -0.112092916E+00   0.120537651E+00
 0.485877781E+01   0.112316157E+00   0.183420489E+01  -0.111114801E+00   0.117705326E+00
 0.494016052E+01   0.111819847E+00   0.184307147E+01  -0.108931668E+00   0.112109861E+00
 0.501978587E+01   0.110987290E+00   0.185140331E+01  -0.105784802E+00   0.103265567E+00
 0.509757607E+01   0.109854276E+00   0.185909653E+01  -0.101805299E+00   0.911415742E-01
 0.517345511E+01   0.108223951E+00   0.186597132E+01  -0.969226080E-01   0.886050035E-01
 0.524734885E+01   0.106424256E+00   0.187207705E+01  -0.915556355E-01   0.781480661E-01
 0.531918509E+01   0.104990208E+00   0.187768998E+01  -0.862478022E-01   0.656633255E-01
 0.538889363E+01   0.102952351E+00   0.188227679E+01  -0.802787213E-01   0.600374186E-01
 0.545640637E+01   0.101393583E+00   0.188649023E+01  -0.746004638E-01   0.561789903E-01
 0.552165734E+01   0.998920897E-01   0.189012182E+01  -0.689279137E-01   0.481258496E-01
 0.558458278E+01   0.982328772E-01   0.189304233E+01  -0.631782343E-01   0.416263439E-01
 0.564512122E+01   0.969913897E-01   0.189572982E+01  -0.577718369E-01   0.405121390E-01
 0.570321349E+01   0.959197772E-01   0.189805650E+01  -0.525633900E-01   0.350827777E-01
 0.575880285E+01   0.946702233E-01   0.189977117E+01  -0.473990694E-01   0.257122970E-01
 0.581183497E+01   0.936686696E-01   0.190127594E+01  -0.425339878E-01   0.254476611E-01
 0.586225804E+01   0.929673075E-01   0.190267342E+01  -0.379873034E-01   0.252006443E-01
 0.591002278E+01   0.924631701E-01   0.190392093E+01  -0.337088999E-01   0.182725110E-01
 0.595508254E+01   0.917411571E-01   0.190466862E+01  -0.295631591E-01   0.156853395E-01
 0.599739328E+01   0.912547967E-01   0.190537464E+01  -0.257263654E-01   0.153182074E-01
 0.603691365E+01   0.909479294E-01   0.190602513E+01  -0.221722192E-01   0.144625744E-01
 0.607360506E+01   0.907601794E-01   0.190659556E+01  -0.188821650E-01   0.138706352E-01
 0.610743164E+01   0.905364052E-01   0.190696284E+01  -0.158310914E-01   0.384180527E-02
 0.613836035E+01   0.902121561E-01   0.190708908E+01  -0.130190441E-01   0.446469833E-02
 0.616636096E+01   0.900247141E-01   0.190723237E+01  -0.104931924E-01   0.440935710E-02
 0.619140611E+01   0.899121774E-01   0.190735504E+01  -0.824046263E-02   0.436490367E-02
 0.621347135E+01   0.898605207E-01   0.190746352E+01  -0.625948782E-02   0.438227647E-02
 0.623253511E+01   0.898511361E-01   0.190755719E+01  -0.454903013E-02   0.437496066E-02
 0.624857876E+01   0.898684563E-01   0.190763593E+01  -0.310946418E-02   0.437591153E-02
 0.626158666E+01   0.898994966E-01   0.190769980E+01  -0.194138094E-02   0.437775818E-02
 0.627154613E+01   0.899335530E-01   0.190774873E+01  -0.104646949E-02   0.437867338E-02
 0.627844763E+01   0.899623876E-01   0.190778265E+01  -0.426042467E-03   0.437905537E-02
 0.628228595E+01   0.899802786E-01   0.190780152E+01  -0.808843170E-04   0.437917894E-02
 0.899353865E-03   0.109538328E+00   0.192735956E+01   0.984662048E-04  -0.388207804E-02
 0.473767679E-02   0.109521187E+00   0.192734123E+01   0.518672917E-03  -0.388315856E-02
 0.116391775E-01   0.109494412E+00   0.192730827E+01   0.127408755E-02  -0.388496068E-02
 0.215986473E-01   0.109464936E+00   0.192726068E+01   0.236390321E-02  -0.388724072E-02
 0.346065430E-01   0.109442740E+00   0.192719849E+01   0.378673483E-02  -0.388964469E-02
 0.506501997E-01   0.109440809E+00   0.192712175E+01   0.554080606E-02  -0.388641974E-02
 0.697139564E-01   0.109475568E+00   0.192703092E+01   0.762585703E-02  -0.385895796E-02
 0.917791922E-01   0.109565199E+00   0.192692535E+01   0.100416965E-01  -0.397047491E-02
 0.116824351E+00   0.109727515E+00   0.192680092E+01   0.127893996E-01  -0.377674559E-02
 0.144824962E+00   0.110023497E+00   0.192669284E+01   0.158793282E-01  -0.364549147E-02
 0.175753667E+00   0.110232601E+00   0.192635587E+01   0.192735302E-01  -0.130035460E-01
 0.209580248E+00   0.110440000E+00   0.192584465E+01   0.229771008E-01  -0.120344405E-01
 0.246271653E+00   0.110800951E+00   0.192527917E+01   0.270121122E-01  -0.136768668E-01
 0.285792031E+00   0.111348043E+00   0.192465285E+01   0.313910985E-01  -0.129585409E-01
 0.328102769E+00   0.111991029E+00   0.192383846E+01   0.360880218E-01  -0.232283846E-01
 0.373162524E+00   0.112557114E+00   0.192263211E+01   0.410340851E-01  -0.222083733E-01
 0.420927270E+00   0.113432432E+00   0.192135224E+01   0.463492834E-01  -0.225732264E-01
 0.471350337E+00   0.114609552E+00   0.191993334E+01   0.520430192E-01  -0.275720784E-01
 0.524382457E+00   0.115676655E+00   0.191795486E+01   0.579168378E-01  -0.310692807E-01
 0.579971813E+00   0.117135459E+00   0.191580256E+01   0.641902157E-01  -0.348968140E-01
 0.638064089E+00   0.118707994E+00   0.191317381E+01   0.707069917E-01  -0.449232927E-01
 0.698602525E+00   0.120297866E+00   0.190993839E+01   0.773693093E-01  -0.461080791E-01
 0.761527970E+00   0.122425730E+00   0.190643094E+01   0.844770918E-01  -0.516217817E-01
 0.826778940E+00   0.124316106E+00   0.190201406E+01   0.914662039E-01  -0.625082094E-01
 0.894291679E+00   0.126638095E+00   0.189710547E+01   0.987482733E-01  -0.643969317E-01
 0.964000221E+00   0.128898644E+00   0.189132466E+01   0.105887303E+00  -0.806855791E-01
 0.103583646E+01   0.131174917E+00   0.188469510E+01   0.112848356E+00  -0.899394604E-01
 0.110973019E+01   0.133587778E+00   0.187725509E+01   0.119638229E+00  -0.985585630E-01
 0.118560923E+01   0.135553985E+00   0.186875263E+01   0.125621994E+00  -0.109170478E+00
 0.126339943E+01   0.137266061E+00   0.185935474E+01   0.130831710E+00  -0.119693964E+00
 0.134302479E+01   0.138751904E+00   0.184915148E+01   0.135168460E+00  -0.129746123E+00