 TITLE="poloidal viscosity for solution of GS equation with flow"
 Variables ="theta", "r", "R [m] ","z [m]", "viscosity"
 ZONE I=         100,J=          44,F=Point
 0.899353865E-03   0.434840413E-01   0.180239473E+01   0.390864869E-04  -0.583689625E-02
 0.473767679E-02   0.434606012E-01   0.180237081E+01   0.205812242E-03  -0.583091812E-02
 0.116391775E-01   0.434201604E-01   0.180232791E+01   0.505226081E-03  -0.581994012E-02
 0.215986473E-01   0.433656653E-01   0.180226624E+01   0.936473674E-03  -0.580357324E-02
 0.346065430E-01   0.433013655E-01   0.180218615E+01   0.149823727E-02  -0.578124996E-02
 0.506501997E-01   0.432327694E-01   0.180208803E+01   0.218881309E-02  -0.575869918E-02
 0.697139564E-01   0.431660202E-01   0.180197188E+01   0.300685250E-02  -0.575728181E-02
 0.917791922E-01   0.431084326E-01   0.180183771E+01   0.395089589E-02  -0.575445488E-02
 0.116824351E+00   0.430686019E-01   0.180168575E+01   0.502000373E-02  -0.575170825E-02
 0.144824962E+00   0.430560648E-01   0.180151603E+01   0.621380114E-02  -0.575382533E-02
 0.175753667E+00   0.430814346E-01   0.180132848E+01   0.753278491E-02  -0.576142479E-02
 0.209580248E+00   0.431563680E-01   0.180112275E+01   0.897863286E-02  -0.577911374E-02
 0.246271653E+00   0.432939939E-01   0.180089844E+01   0.105546224E-01  -0.580959459E-02
 0.285792031E+00   0.435089806E-01   0.180065490E+01   0.122659587E-01  -0.576592692E-02
 0.328102769E+00   0.438202185E-01   0.180039338E+01   0.141208970E-01  -0.598748188E-02
 0.373162524E+00   0.442472929E-01   0.180011285E+01   0.161309409E-01  -0.688101686E-02
 0.420927270E+00   0.445246106E-01   0.179954900E+01   0.181925790E-01  -0.168581926E-01
 0.471350337E+00   0.446056402E-01   0.179865237E+01   0.202549664E-01  -0.165111171E-01
 0.524382457E+00   0.447187008E-01   0.179762081E+01   0.223895119E-01  -0.210184014E-01
 0.579971813E+00   0.448378073E-01   0.179641656E+01   0.245711184E-01  -0.206443536E-01
 0.638064089E+00   0.451169075E-01   0.179515086E+01   0.268735209E-01  -0.208223656E-01
 0.698602525E+00   0.455775014E-01   0.179381128E+01   0.293131083E-01  -0.210327439E-01
 0.761527970E+00   0.462495328E-01   0.179238537E+01   0.319134110E-01  -0.216678474E-01
 0.826778940E+00   0.470912630E-01   0.179080386E+01   0.346469634E-01  -0.292544165E-01
 0.894291679E+00   0.474622469E-01   0.178862525E+01   0.370095879E-01  -0.316275303E-01
 0.964000221E+00   0.476092318E-01   0.178605927E+01   0.391100380E-01  -0.363034245E-01
 0.103583646E+01   0.479290331E-01   0.178334524E+01   0.412328224E-01  -0.367113493E-01
 0.110973019E+01   0.485299588E-01   0.178050191E+01   0.434623588E-01  -0.373229829E-01
 0.118560923E+01   0.491515540E-01   0.177737898E+01   0.455499466E-01  -0.448963484E-01
 0.126339943E+01   0.494815879E-01   0.177388274E+01   0.471621204E-01  -0.444699354E-01
 0.134302479E+01   0.501583118E-01   0.177023691E+01   0.488628165E-01  -0.451702263E-01
 0.142440750E+01   0.504607539E-01   0.176627089E+01   0.499211027E-01  -0.502933266E-01
 0.150746804E+01   0.506384002E-01   0.176211540E+01   0.505368926E-01  -0.504018037E-01
 0.159212526E+01   0.508538943E-01   0.175782705E+01   0.508423259E-01  -0.508721556E-01
 0.167829644E+01   0.503626667E-01   0.175350704E+01   0.500719362E-01  -0.505907233E-01
 0.176589739E+01   0.502226474E-01   0.174917482E+01   0.492699350E-01  -0.486815648E-01
 0.185484251E+01   0.492914709E-01   0.174509716E+01   0.473163321E-01  -0.457548107E-01
 0.194504489E+01   0.486953955E-01   0.174110907E+01   0.453248629E-01  -0.454052145E-01
 0.203641640E+01   0.479550158E-01   0.173738004E+01   0.428498941E-01  -0.389334352E-01
 0.212886777E+01   0.471615606E-01   0.173393626E+01   0.400061196E-01  -0.384002016E-01
 0.222230865E+01   0.467759092E-01   0.173054625E+01   0.371946640E-01  -0.379482782E-01
 0.231664774E+01   0.461664640E-01   0.172758220E+01   0.339096706E-01  -0.254596639E-01
 0.241179288E+01   0.448616797E-01   0.172547496E+01   0.299102089E-01  -0.220825407E-01
 0.250765110E+01   0.439800218E-01   0.172347606E+01   0.260504822E-01  -0.216969340E-01
 0.260412873E+01   0.435187815E-01   0.172152765E+01   0.222798463E-01  -0.214841545E-01
 0.270113151E+01   0.434505819E-01   0.171960726E+01   0.185254526E-01  -0.203815699E-01
 0.279856465E+01   0.427189004E-01   0.171868059E+01   0.143680996E-01  -0.630641989E-02
 0.289633297E+01   0.420470188E-01   0.171812196E+01   0.102093353E-01  -0.607221107E-02
 0.299434092E+01   0.417920579E-01   0.171757092E+01   0.613171572E-02  -0.606005161E-02
 0.309249275E+01   0.419351368E-01   0.171702611E+01   0.205843709E-02  -0.567089884E-02
 0.319069256E+01   0.419351981E-01   0.171702605E+01  -0.205843990E-02   0.567247891E-02
 0.328884439E+01   0.417920366E-01   0.171757094E+01  -0.613171128E-02   0.606049202E-02
 0.338685234E+01   0.420503442E-01   0.171811874E+01  -0.102101628E-01   0.598155861E-02
 0.348462065E+01   0.427187843E-01   0.171868070E+01  -0.143680600E-01   0.631159084E-02
 0.358205380E+01   0.434505736E-01   0.171960727E+01  -0.185254490E-01   0.203801756E-01
 0.367905658E+01   0.435187417E-01   0.172152769E+01  -0.222798260E-01   0.214848820E-01
 0.377553421E+01   0.439799079E-01   0.172347615E+01  -0.260504148E-01   0.216974262E-01
 0.387139242E+01   0.448615641E-01   0.172547505E+01  -0.299101331E-01   0.220791964E-01
 0.396653756E+01   0.461694807E-01   0.172758014E+01  -0.339118688E-01   0.255537028E-01
 0.406087666E+01   0.467758660E-01   0.173054627E+01  -0.371946304E-01   0.379488359E-01
 0.415431754E+01   0.471614840E-01   0.173393630E+01  -0.400060547E-01   0.384008116E-01
 0.424676890E+01   0.479548640E-01   0.173738011E+01  -0.428497585E-01   0.389347346E-01
 0.433814041E+01   0.486953444E-01   0.174110908E+01  -0.453248153E-01   0.454053559E-01
 0.442834280E+01   0.492913415E-01   0.174509720E+01  -0.473162079E-01   0.457555495E-01
 0.451728792E+01   0.502225727E-01   0.174917483E+01  -0.492698618E-01   0.486805403E-01
 0.460488886E+01   0.503626224E-01   0.175350704E+01  -0.500718921E-01   0.505908602E-01
 0.469106005E+01   0.508538121E-01   0.175782705E+01  -0.508422437E-01   0.508711813E-01
 0.477571727E+01   0.506384563E-01   0.176211540E+01  -0.505369486E-01   0.504018613E-01
 0.485877781E+01   0.504607482E-01   0.176627089E+01  -0.499210971E-01   0.502933163E-01
 0.494016052E+01   0.501584812E-01   0.177023695E+01  -0.488629816E-01   0.451703851E-01
 0.501978587E+01   0.494816699E-01   0.177388276E+01  -0.471621986E-01   0.444697781E-01
 0.509757607E+01   0.491515952E-01   0.177737899E+01  -0.455499847E-01   0.448967565E-01
 0.517345511E+01   0.485300856E-01   0.178050197E+01  -0.434624724E-01   0.373223292E-01
 0.524734885E+01   0.479291347E-01   0.178334530E+01  -0.412329098E-01   0.367116726E-01
 0.531918509E+01   0.476094650E-01   0.178605941E+01  -0.391102236E-01   0.363153695E-01
 0.538889363E+01   0.474604113E-01   0.178862412E+01  -0.370081367E-01   0.317231943E-01
 0.545640637E+01   0.470913704E-01   0.179080394E+01  -0.346470403E-01   0.292588426E-01
 0.552165734E+01   0.462496993E-01   0.179238549E+01  -0.319135258E-01   0.216670568E-01
 0.558458278E+01   0.455776428E-01   0.179381139E+01  -0.293131991E-01   0.210335602E-01
 0.564512122E+01   0.451170013E-01   0.179515094E+01  -0.268735768E-01   0.208219128E-01
 0.570321349E+01   0.448378611E-01   0.179641660E+01  -0.245711480E-01   0.206436424E-01
 0.575880285E+01   0.447187204E-01   0.179762082E+01  -0.223895216E-01   0.210185718E-01
 0.581183497E+01   0.446056774E-01   0.179865240E+01  -0.202549833E-01   0.165108983E-01
 0.586225804E+01   0.445246389E-01   0.179954902E+01  -0.181925906E-01   0.168589957E-01
 0.591002278E+01   0.442474077E-01   0.180011295E+01  -0.161309829E-01   0.688137765E-02
 0.595508254E+01   0.438202981E-01   0.180039345E+01  -0.141209228E-01   0.598689009E-02
 0.599739328E+01   0.435090890E-01   0.180065500E+01  -0.122659891E-01   0.576632189E-02
 0.603691365E+01   0.432940698E-01   0.180089852E+01  -0.105546408E-01   0.580892646E-02
 0.607360506E+01   0.431564148E-01   0.180112279E+01  -0.897864264E-02   0.577840125E-02
 0.610743164E+01   0.430814539E-01   0.180132850E+01  -0.753278824E-02   0.576100158E-02
 0.613836035E+01   0.430560668E-01   0.180151603E+01  -0.621380147E-02   0.575335463E-02
 0.616636096E+01   0.430685887E-01   0.180168573E+01  -0.502000205E-02   0.575137710E-02
 0.619140611E+01   0.431084017E-01   0.180183768E+01  -0.395089319E-02   0.575349411E-02
 0.621347135E+01   0.431659623E-01   0.180197182E+01  -0.300684948E-02   0.575766283E-02
 0.623253511E+01   0.432327704E-01   0.180208804E+01  -0.218881024E-02   0.576299953E-02
 0.624857876E+01   0.433013460E-01   0.180218613E+01  -0.149823492E-02   0.577114862E-02
 0.626158666E+01   0.433653367E-01   0.180226592E+01  -0.936472001E-03   0.577787373E-02
 0.627154613E+01   0.434194124E-01   0.180232716E+01  -0.505225095E-03   0.578238194E-02
 0.627844763E+01   0.434594696E-01   0.180236967E+01  -0.205811817E-03   0.578518647E-02
 0.628228595E+01   0.434826635E-01   0.180239335E+01  -0.390864036E-04   0.578663478E-02
 0.899353865E-03   0.652402817E-01   0.182415096E+01   0.586456041E-04  -0.578257526E-02
 0.473767679E-02   0.652166442E-01   0.182412661E+01   0.308853490E-03  -0.578443668E-02
 0.116391775E-01   0.651765441E-01   0.182408282E+01   0.758398610E-03  -0.578758736E-02
 0.215986473E-01   0.651241160E-01   0.182401962E+01   0.140635802E-02  -0.579168374E-02
 0.346065430E-01   0.650653190E-01   0.182393707E+01   0.225127065E-02  -0.579621935E-02
 0.506501997E-01   0.650079016E-01   0.182383524E+01   0.329125041E-02  -0.579959022E-02
 0.697139564E-01   0.649614521E-01   0.182371436E+01   0.452507711E-02  -0.579776694E-02
 0.917791922E-01   0.649372420E-01   0.182357464E+01   0.595151059E-02  -0.579855013E-02
 0.116824351E+00   0.649480570E-01   0.182341607E+01   0.757023816E-02  -0.580440300E-02
 0.144824962E+00   0.650082737E-01   0.182323843E+01   0.938190748E-02  -0.581507795E-02
 0.175753667E+00   0.651350027E-01   0.182304231E+01   0.113888954E-01  -0.581773140E-02
 0.209580248E+00   0.653415427E-01   0.182282252E+01   0.135940562E-01  -0.582098039E-02
 0.246271653E+00   0.656718738E-01   0.182260107E+01   0.160103914E-01  -0.746050299E-02
 0.285792031E+00   0.658365723E-01   0.182207688E+01   0.185604218E-01  -0.157448716E-01
 0.328102769E+00   0.658908031E-01   0.182128656E+01   0.212332600E-01  -0.169457236E-01
 0.373162524E+00   0.660874805E-01   0.182045000E+01   0.240929711E-01  -0.171347815E-01
 0.420927270E+00   0.664427000E-01   0.181955364E+01   0.271489763E-01  -0.172582420E-01
 0.471350337E+00   0.669876531E-01   0.181859375E+01   0.304184100E-01  -0.173379677E-01
 0.524382457E+00   0.677223396E-01   0.181753297E+01   0.339078833E-01  -0.218335560E-01
 0.579971813E+00   0.679165093E-01   0.181572119E+01   0.372185756E-01  -0.310123497E-01
 0.638064089E+00   0.682669025E-01   0.181374609E+01   0.406626450E-01  -0.315922031E-01
 0.698602525E+00   0.688794361E-01   0.181165453E+01   0.442997094E-01  -0.320322051E-01
 0.761527970E+00   0.698018120E-01   0.180943203E+01   0.481652160E-01  -0.325158967E-01
 0.826778940E+00   0.708248468E-01   0.180687763E+01   0.521088442E-01  -0.458230480E-01
 0.894291679E+00   0.712051973E-01   0.180349031E+01   0.555233186E-01  -0.468321254E-01
 0.964000221E+00   0.719911902E-01   0.179996293E+01   0.591392300E-01  -0.475548279E-01
 0.103583646E+01   0.728416859E-01   0.179604590E+01   0.626648903E-01  -0.549978649E-01
 0.110973019E+01   0.738034180E-01   0.179174628E+01   0.660966706E-01  -0.557428325E-01
 0.118560923E+01   0.748754550E-01   0.178704444E+01   0.693889385E-01  -0.666251161E-01
 0.126339943E+01   0.753220816E-01   0.178170144E+01   0.717913485E-01  -0.664443508E-01
 0.134302479E+01   0.758611042E-01   0.177604101E+01   0.739016899E-01  -0.727014779E-01
 0.142440750E+01   0.763590026E-01   0.177004828E+01   0.755423661E-01  -0.724037407E-01
 0.150746804E+01   0.765291331E-01   0.176375391E+01   0.763757263E-01  -0.764471605E-01
 0.159212526E+01   0.767405469E-01   0.175727485E+01   0.767230947E-01  -0.782708198E-01
 0.167829644E+01   0.766221206E-01   0.175068877E+01   0.761797052E-01  -0.777639349E-01
 0.176589739E+01   0.761684208E-01   0.174414435E+01   0.747233806E-01  -0.763940892E-01
 0.185484251E+01   0.757596303E-01   0.173767968E+01   0.727238978E-01  -0.734244383E-01
 0.194504489E+01   0.751333573E-01   0.173144411E+01   0.699328824E-01  -0.726421440E-01
 0.203641640E+01   0.739783905E-01   0.172569604E+01   0.661028549E-01  -0.616940018E-01
 0.212886777E+01   0.728363322E-01   0.172033975E+01   0.617851992E-01  -0.597919961E-01
 0.222230865E+01   0.715508988E-01   0.171552303E+01   0.568949926E-01  -0.539024556E-01
 0.231664774E+01   0.708237635E-01   0.171084915E+01   0.520200982E-01  -0.516957712E-01
 0.241179288E+01   0.692131307E-01   0.170732565E+01   0.461458368E-01  -0.371659944E-01
 0.250765110E+01   0.680478559E-01   0.170408464E+01   0.403064816E-01  -0.365897336E-01
 0.260412873E+01   0.675234007E-01   0.170090724E+01   0.345688691E-01  -0.319453227E-01
 0.270113151E+01   0.662670729E-01   0.169896849E+01   0.282534105E-01  -0.201043632E-01
 0.279856465E+01   0.655057475E-01   0.169722129E+01   0.220322184E-01  -0.198642314E-01
 0.289633297E+01   0.651384557E-01   0.169572162E+01   0.158163901E-01  -0.817410978E-02
 0.299434092E+01   0.644647783E-01   0.169514355E+01   0.945822732E-02  -0.675136521E-02
 0.309249275E+01   0.644281964E-01   0.169456016E+01   0.316241102E-02  -0.629838515E-02
 0.319069256E+01   0.644282270E-01   0.169456013E+01  -0.316241239E-02   0.629974106E-02
 0.328884439E+01   0.644647402E-01   0.169514359E+01  -0.945822160E-02   0.675215961E-02
 0.338685234E+01   0.651384247E-01   0.169572165E+01  -0.158163825E-01   0.817384325E-02
 0.348462065E+01   0.655057472E-01   0.169722129E+01  -0.220322201E-01   0.198784695E-01
 0.358205380E+01   0.662669804E-01   0.169896857E+01  -0.282533725E-01   0.202007459E-01
 0.367905658E+01   0.675233461E-01   0.170090728E+01  -0.345688410E-01   0.319433739E-01
 0.377553421E+01   0.680477993E-01   0.170408468E+01  -0.403064481E-01   0.365903121E-01
 0.387139242E+01   0.692129876E-01   0.170732576E+01  -0.461457418E-01   0.371629877E-01
 0.396653756E+01   0.708237239E-01   0.171084918E+01  -0.520200690E-01   0.516944000E-01
 0.406087666E+01   0.715508532E-01   0.171552306E+01  -0.568949564E-01   0.539028275E-01
 0.415431754E+01   0.728362672E-01   0.172033978E+01  -0.617851442E-01   0.597908793E-01
 0.424676890E+01   0.739783285E-01   0.172569606E+01  -0.661027994E-01   0.616938024E-01
 0.433814041E+01   0.751333434E-01   0.173144412E+01  -0.699328694E-01   0.726414379E-01
 0.442834280E+01   0.757595772E-01   0.173767969E+01  -0.727238468E-01   0.734242573E-01
 0.451728792E+01   0.761684045E-01   0.174414435E+01  -0.747233646E-01   0.763942333E-01
 0.460488886E+01   0.766221193E-01   0.175068877E+01  -0.761797039E-01   0.777637581E-01
 0.469106005E+01   0.767405321E-01   0.175727485E+01  -0.767230799E-01   0.782706129E-01
 0.477571727E+01   0.765291437E-01   0.176375391E+01  -0.763757369E-01   0.764472294E-01
 0.485877781E+01   0.763590477E-01   0.177004829E+01  -0.755424106E-01   0.724038389E-01
 0.494016052E+01   0.758611280E-01   0.177604101E+01  -0.739017131E-01   0.727015274E-01
 0.501978587E+01   0.753221175E-01   0.178170145E+01  -0.717913827E-01   0.664443892E-01
 0.509757607E+01   0.748754992E-01   0.178704446E+01  -0.693889791E-01   0.666256752E-01
 0.517345511E+01   0.738039251E-01   0.179174652E+01  -0.660971165E-01   0.557401034E-01
 0.524734885E+01   0.728418385E-01   0.179604598E+01  -0.626650226E-01   0.550222971E-01
 0.531918509E+01   0.719912862E-01   0.179996299E+01  -0.591393096E-01   0.475548589E-01
 0.538889363E+01   0.712052422E-01   0.180349033E+01  -0.555233537E-01   0.468318416E-01
 0.545640637E+01   0.708248915E-01   0.180687766E+01  -0.521088772E-01   0.458236490E-01
 0.552165734E+01   0.698019232E-01   0.180943211E+01  -0.481652929E-01   0.325150988E-01
 0.558458278E+01   0.688794963E-01   0.181165458E+01  -0.442997482E-01   0.320318923E-01
 0.564512122E+01   0.682669327E-01   0.181374611E+01  -0.406626630E-01   0.315920556E-01
 0.570321349E+01   0.679165196E-01   0.181572120E+01  -0.372185814E-01   0.310121133E-01
 0.575880285E+01   0.677223861E-01   0.181753301E+01  -0.339079067E-01   0.218339130E-01
 0.581183497E+01   0.669877521E-01   0.181859384E+01  -0.304184550E-01   0.173379502E-01
 0.586225804E+01   0.664427480E-01   0.181955368E+01  -0.271489958E-01   0.172581092E-01
 0.591002278E+01   0.660875024E-01   0.182045002E+01  -0.240929790E-01   0.171345568E-01
 0.595508254E+01   0.658908144E-01   0.182128657E+01  -0.212332637E-01   0.169455336E-01
 0.599739328E+01   0.658365803E-01   0.182207688E+01  -0.185604241E-01   0.157452563E-01
 0.603691365E+01   0.656719272E-01   0.182260113E+01  -0.160104045E-01   0.746095176E-02
 0.607360506E+01   0.653415962E-01   0.182282258E+01  -0.135940674E-01   0.582064549E-02
 0.610743164E+01   0.651350366E-01   0.182304234E+01  -0.113889013E-01   0.581742677E-02
 0.613836035E+01   0.650082940E-01   0.182323845E+01  -0.938191039E-02   0.581480389E-02
 0.616636096E+01   0.649480645E-01   0.182341608E+01  -0.757023910E-02   0.580406874E-02
 0.619140611E+01   0.649372403E-01   0.182357464E+01  -0.595151037E-02   0.579850295E-02
 0.621347135E+01   0.649614481E-01   0.182371436E+01  -0.452507627E-02   0.579706891E-02
 0.623253511E+01   0.650078500E-01   0.182383519E+01  -0.329124945E-02   0.579701846E-02
 0.624857876E+01   0.650652685E-01   0.182393702E+01  -0.225126987E-02   0.580078617E-02
 0.626158666E+01   0.651242341E-01   0.182401974E+01  -0.140635746E-02   0.580398778E-02
 0.627154613E+01   0.651768958E-01   0.182408317E+01  -0.758398284E-03   0.580578603E-02
 0.627844763E+01   0.652172112E-01   0.182412717E+01  -0.308853349E-03   0.580670435E-02
 0.628228595E+01   0.652409871E-01   0.182415166E+01  -0.586455766E-04   0.580710019E-02
 0.899353865E-03   0.920200074E-01   0.185093067E+01   0.827172825E-04  -0.540845381E-02
 0.473767679E-02   0.919973318E-01   0.185090700E+01   0.435677076E-03  -0.540751898E-02
 0.116391775E-01   0.919599980E-01   0.185086446E+01   0.107004540E-02  -0.540563842E-02
 0.215986473E-01   0.919139115E-01   0.185080317E+01   0.198487952E-02  -0.540246941E-02
 0.346065430E-01   0.918675768E-01   0.185072328E+01   0.317863496E-02  -0.539751494E-02
 0.506501997E-01   0.918320391E-01   0.185062498E+01   0.464932174E-02  -0.539405699E-02
 0.697139564E-01   0.918204737E-01   0.185050814E+01   0.639601347E-02  -0.540473659E-02
 0.917791922E-01   0.918486807E-01   0.185037282E+01   0.841794330E-02  -0.539393912E-02
 0.116824351E+00   0.919355502E-01   0.185021960E+01   0.107159208E-01  -0.543981172E-02
 0.144824962E+00   0.920958033E-01   0.185004244E+01   0.132908575E-01  -0.549768342E-02
 0.175753667E+00   0.923885576E-01   0.184987584E+01   0.161551675E-01  -0.532952755E-02
 0.209580248E+00   0.925032893E-01   0.184939000E+01   0.192445826E-01  -0.176322869E-01
 0.246271653E+00   0.925895857E-01   0.184870668E+01   0.225724484E-01  -0.158721965E-01
 0.285792031E+00   0.928430099E-01   0.184798786E+01   0.261741166E-01  -0.160482260E-01
 0.328102769E+00   0.932568125E-01   0.184719287E+01   0.300515261E-01  -0.176302942E-01
 0.373162524E+00   0.938144137E-01   0.184626857E+01   0.342015922E-01  -0.221971614E-01
 0.420927270E+00   0.940228503E-01   0.184472619E+01   0.384187544E-01  -0.288013315E-01
 0.471350337E+00   0.944594243E-01   0.184306989E+01   0.428930615E-01  -0.292452574E-01
 0.524382457E+00   0.951726900E-01   0.184129557E+01   0.476506066E-01  -0.295771129E-01
 0.579971813E+00   0.961013544E-01   0.183929790E+01   0.526627692E-01  -0.399060566E-01
 0.638064089E+00   0.967457755E-01   0.183662197E+01   0.576255361E-01  -0.435649003E-01
 0.698602525E+00   0.975539900E-01   0.183361188E+01   0.627416411E-01  -0.445933585E-01
 0.761527970E+00   0.987784084E-01   0.183040492E+01   0.681597196E-01  -0.485542396E-01
 0.826778940E+00   0.997597168E-01   0.182647308E+01   0.733984000E-01  -0.589814552E-01
 0.894291679E+00   0.100769149E+00   0.182199945E+01   0.785762817E-01  -0.603654625E-01
 0.964000221E+00   0.102261362E+00   0.181722384E+01   0.840057523E-01  -0.659853033E-01
 0.103583646E+01   0.103369996E+00   0.181160944E+01   0.889280602E-01  -0.740627943E-01
 0.110973019E+01   0.104534955E+00   0.180541870E+01   0.936192389E-01  -0.816251675E-01
 0.118560923E+01   0.105895638E+00   0.179869847E+01   0.981367501E-01  -0.845584448E-01
 0.126339943E+01   0.107126588E+00   0.179132450E+01   0.102105075E+00  -0.903759273E-01
 0.134302479E+01   0.108038738E+00   0.178330684E+01   0.105248287E+00  -0.994871639E-01
 0.142440750E+01   0.108773754E+00   0.177477724E+01   0.107610339E+00  -0.105320732E+00
 0.150746804E+01   0.109330824E+00   0.176582983E+01   0.109111661E+00  -0.109630233E+00
 0.159212526E+01   0.109647926E+00   0.175657299E+01   0.109622988E+00  -0.112409798E+00
 0.167829644E+01   0.109647717E+00   0.174714724E+01   0.109014868E+00  -0.112586094E+00
 0.176589739E+01   0.109318335E+00   0.173771813E+01   0.107244459E+00  -0.111251115E+00
 0.185484251E+01   0.108737220E+00   0.172843802E+01   0.104380068E+00  -0.109073016E+00
 0.194504489E+01   0.107630960E+00   0.171956345E+01   0.100180916E+00  -0.101500161E+00
 0.203641640E+01   0.106152042E+00   0.171125066E+01   0.948513238E-01  -0.966403196E-01
 0.212886777E+01   0.104695175E+00   0.170346960E+01   0.888108360E-01  -0.911726533E-01
 0.222230865E+01   0.103013816E+00   0.169644416E+01   0.819132161E-01  -0.761536043E-01
 0.231664774E+01   0.101367393E+00   0.169012285E+01   0.744551928E-01  -0.722997368E-01
 0.241179288E+01   0.997312214E-01   0.168458057E+01   0.664931741E-01  -0.557516778E-01
 0.250765110E+01   0.980897831E-01   0.167987982E+01   0.581009707E-01  -0.531018340E-01
 0.260412873E+01   0.966942984E-01   0.167584942E+01   0.495036184E-01  -0.388342311E-01
 0.270113151E+01   0.953265865E-01   0.167268255E+01   0.406431196E-01  -0.374565804E-01
 0.279856465E+01   0.944498003E-01   0.166996347E+01   0.317671993E-01  -0.218023500E-01
 0.289633297E+01   0.934836105E-01   0.166822466E+01   0.226986468E-01  -0.208687156E-01
 0.299434092E+01   0.929720872E-01   0.166694471E+01   0.136406276E-01  -0.707850661E-02
 0.309249275E+01   0.926553321E-01   0.166636704E+01   0.454779271E-02  -0.659681998E-02
 0.319069256E+01   0.926553382E-01   0.166636703E+01  -0.454779297E-02   0.659745054E-02
 0.328884439E+01   0.929720432E-01   0.166694475E+01  -0.136406210E-01   0.707915529E-02
 0.338685234E+01   0.934835807E-01   0.166822469E+01  -0.226986396E-01   0.208704296E-01
 0.348462065E+01   0.944497888E-01   0.166996348E+01  -0.317671954E-01   0.218030393E-01
 0.358205380E+01   0.953265648E-01   0.167268257E+01  -0.406431104E-01   0.374569196E-01
 0.367905658E+01   0.966942499E-01   0.167584946E+01  -0.495035937E-01   0.388333435E-01
 0.377553421E+01   0.980897547E-01   0.167987985E+01  -0.581009538E-01   0.531018523E-01
 0.387139242E+01   0.997311826E-01   0.168458060E+01  -0.664931484E-01   0.557515676E-01
 0.396653756E+01   0.101367319E+00   0.169012290E+01  -0.744551387E-01   0.722978075E-01
 0.406087666E+01   0.103013743E+00   0.169644420E+01  -0.819131579E-01   0.761551279E-01
 0.415431754E+01   0.104695150E+00   0.170346962E+01  -0.888108146E-01   0.911721287E-01
 0.424676890E+01   0.106151991E+00   0.171125068E+01  -0.948512790E-01   0.966407502E-01
 0.433814041E+01   0.107630871E+00   0.171956348E+01  -0.100180833E+00   0.101499167E+00
 0.442834280E+01   0.108737184E+00   0.172843803E+01  -0.104380034E+00   0.109072930E+00
 0.451728792E+01   0.109318302E+00   0.173771813E+01  -0.107244427E+00   0.111250844E+00
 0.460488886E+01   0.109647713E+00   0.174714724E+01  -0.109014864E+00   0.112586021E+00
 0.469106005E+01   0.109647925E+00   0.175657299E+01  -0.109622986E+00   0.112409801E+00
 0.477571727E+01   0.109330839E+00   0.176582983E+01  -0.109111677E+00   0.109630298E+00
 0.485877781E+01   0.108773783E+00   0.177477724E+01  -0.107610368E+00   0.105320768E+00
 0.494016052E+01   0.108038763E+00   0.178330685E+01  -0.105248311E+00   0.994871892E-01
 0.501978587E+01   0.107126626E+00   0.179132451E+01  -0.102105111E+00   0.903759579E-01
 0.509757607E+01   0.105895665E+00   0.179869848E+01  -0.981367760E-01   0.845585680E-01
 0.517345511E+01   0.104534978E+00   0.180541871E+01  -0.936192592E-01   0.816251673E-01
 0.524734885E+01   0.103370045E+00   0.181160947E+01  -0.889281025E-01   0.740627813E-01
 0.531918509E+01   0.102261433E+00   0.181722388E+01  -0.840058108E-01   0.659860167E-01
 0.538889363E+01   0.100769197E+00   0.182199948E+01  -0.785763192E-01   0.603653799E-01
 0.545640637E+01   0.997597369E-01   0.182647309E+01  -0.733984150E-01   0.589814797E-01
 0.552165734E+01   0.987784566E-01   0.183040496E+01  -0.681597530E-01   0.485536532E-01
 0.558458278E+01   0.975540132E-01   0.183361190E+01  -0.627416561E-01   0.445932453E-01
 0.564512122E+01   0.967457943E-01   0.183662198E+01  -0.576255473E-01   0.435648299E-01
 0.570321349E+01   0.961014039E-01   0.183929794E+01  -0.526627960E-01   0.399073676E-01
 0.575880285E+01   0.951727324E-01   0.184129560E+01  -0.476506277E-01   0.295768607E-01
 0.581183497E+01   0.944594471E-01   0.184306991E+01  -0.428930719E-01   0.292451721E-01
 0.586225804E+01   0.940228603E-01   0.184472620E+01  -0.384187588E-01   0.288011428E-01
 0.591002278E+01   0.938144286E-01   0.184626858E+01  -0.342015986E-01   0.221955849E-01
 0.595508254E+01   0.932572206E-01   0.184719326E+01  -0.300516404E-01   0.176400151E-01
 0.599739328E+01   0.928395995E-01   0.184798459E+01  -0.261731652E-01   0.160311244E-01
 0.603691365E+01   0.925899283E-01   0.184870701E+01  -0.225725425E-01   0.158916943E-01
 0.607360506E+01   0.925032181E-01   0.184938993E+01  -0.192445625E-01   0.176319783E-01
 0.610743164E+01   0.923886063E-01   0.184987588E+01  -0.161551771E-01   0.533014304E-02
 0.613836035E+01   0.920958532E-01   0.185004249E+01  -0.132908646E-01   0.549729718E-02
 0.616636096E+01   0.919355756E-01   0.185021963E+01  -0.107159237E-01   0.543940628E-02
 0.619140611E+01   0.918486869E-01   0.185037283E+01  -0.841794392E-02   0.539355490E-02
 0.621347135E+01   0.918204679E-01   0.185050814E+01  -0.639601349E-02   0.540487970E-02
 0.623253511E+01   0.918320599E-01   0.185062500E+01  -0.464932152E-02   0.539533448E-02
 0.624857876E+01   0.918675886E-01   0.185072329E+01  -0.317863463E-02   0.539452332E-02
 0.626158666E+01   0.919137868E-01   0.185080305E+01  -0.198487922E-02   0.539484208E-02
 0.627154613E+01   0.919596881E-01   0.185086415E+01  -0.107004520E-02   0.539447560E-02
 0.627844763E+01   0.919968525E-01   0.185090652E+01  -0.435676983E-03   0.539391382E-02
 0.628228595E+01   0.920194194E-01   0.185093009E+01  -0.827172638E-04   0.539349313E-02
 0.899353865E-03   0.112700362E+00   0.187161102E+01   0.101307935E-03  -0.530140002E-02
 0.473767679E-02   0.112677736E+00   0.187158717E+01   0.533618718E-03  -0.530206401E-02
 0.116391775E-01   0.112641232E+00   0.187154430E+01   0.131069903E-02  -0.530306516E-02
 0.215986473E-01   0.112598017E+00   0.187148245E+01   0.243155799E-02  -0.530407052E-02
 0.346065430E-01   0.112558413E+00   0.187140173E+01   0.389453946E-02  -0.530459626E-02
 0.506501997E-01   0.112535832E+00   0.187130223E+01   0.569751356E-02  -0.530523479E-02
 0.697139564E-01   0.112546673E+00   0.187118399E+01   0.783976966E-02  -0.530938866E-02
 0.917791922E-01   0.112610282E+00   0.187104704E+01   0.103207650E-01  -0.531943678E-02
 0.116824351E+00   0.112748973E+00   0.187089120E+01   0.131416768E-01  -0.532566704E-02
 0.144824962E+00   0.112986591E+00   0.187071433E+01   0.163069621E-01  -0.665558620E-02
 0.175753667E+00   0.113088978E+00   0.187025768E+01   0.197729006E-01  -0.173875012E-01
 0.209580248E+00   0.113179379E+00   0.186961352E+01   0.235470179E-01  -0.156200622E-01
 0.246271653E+00   0.113447261E+00   0.186893507E+01   0.276572126E-01  -0.159299083E-01
 0.285792031E+00   0.113904304E+00   0.186819488E+01   0.321116631E-01  -0.169608784E-01
 0.328102769E+00   0.114345483E+00   0.186715668E+01   0.368469368E-01  -0.274287569E-01
 0.373162524E+00   0.114656366E+00   0.186567632E+01   0.417993678E-01  -0.283083173E-01
 0.420927270E+00   0.115238072E+00   0.186408962E+01   0.470872385E-01  -0.282432345E-01
 0.471350337E+00   0.116010996E+00   0.186227139E+01   0.526794027E-01  -0.357309040E-01
 0.524382457E+00   0.116634654E+00   0.185987355E+01   0.583965060E-01  -0.390218598E-01
 0.579971813E+00   0.117642143E+00   0.185731569E+01   0.644680778E-01  -0.406303496E-01
 0.638064089E+00   0.118682198E+00   0.185424252E+01   0.706916339E-01  -0.521605791E-01
 0.698602525E+00   0.119639903E+00   0.185052396E+01   0.769461815E-01  -0.535813048E-01
 0.761527970E+00   0.121093062E+00   0.184655567E+01   0.835576660E-01  -0.578605429E-01
 0.826778940E+00   0.122284848E+00   0.184172785E+01   0.899716870E-01  -0.679440845E-01
 0.894291679E+00   0.123766798E+00   0.183639802E+01   0.965087268E-01  -0.751338336E-01
 0.964000221E+00   0.125428118E+00   0.183043428E+01   0.103036860E+00  -0.788192057E-01
 0.103583646E+01   0.126822779E+00   0.182356581E+01   0.109104243E+00  -0.896760002E-01
 0.110973019E+01   0.128505222E+00   0.181608367E+01   0.115086229E+00  -0.977191116E-01
 0.118560923E+01   0.130247955E+00   0.180784858E+01   0.120704657E+00  -0.104611964E+00
 0.126339943E+01   0.131581971E+00   0.179872491E+01   0.125413869E+00  -0.113533873E+00
 0.134302479E+01   0.132917703E+00   0.178892366E+01   0.129484901E+00  -0.119778440E+00