 TITLE="poloidal viscosity for solution of GS equation with flow"
 Variables ="theta", "r", "R [m] ","z [m]", "viscosity"
 ZONE I=         100,J=          44,F=Point
 0.899353865E-03   0.388498617E-01   0.181228734E+01  -0.223208476E-01  -0.869501353E-02
 0.473767679E-02   0.388086687E-01   0.181224571E+01  -0.221719839E-01  -0.869354769E-02
 0.116391775E-01   0.387361203E-01   0.181217096E+01  -0.219050404E-01  -0.869070368E-02
 0.215986473E-01   0.386348678E-01   0.181206333E+01  -0.215214517E-01  -0.868610867E-02
 0.346065430E-01   0.385087457E-01   0.181192320E+01  -0.210233601E-01  -0.867918596E-02
 0.506501997E-01   0.383627855E-01   0.181175109E+01  -0.204135359E-01  -0.865316881E-02
 0.697139564E-01   0.382048057E-01   0.181154951E+01  -0.196944887E-01  -0.855145681E-02
 0.917791922E-01   0.380425806E-01   0.181131997E+01  -0.188691566E-01  -0.853551400E-02
 0.116824351E+00   0.378792158E-01   0.181105852E+01  -0.179406272E-01  -0.858582747E-02
 0.144824962E+00   0.377234652E-01   0.181076605E+01  -0.169116073E-01  -0.856905651E-02
 0.175753667E+00   0.375939486E-01   0.181045230E+01  -0.157823624E-01  -0.839853378E-02
 0.209580248E+00   0.374578062E-01   0.181007565E+01  -0.145626479E-01  -0.100762360E-01
 0.246271653E+00   0.372753184E-01   0.180958816E+01  -0.132684730E-01  -0.113556063E-01
 0.285792031E+00   0.371213517E-01   0.180905316E+01  -0.118906024E-01  -0.111167386E-01
 0.328102769E+00   0.370256847E-01   0.180848807E+01  -0.104243436E-01  -0.112025637E-01
 0.373162524E+00   0.369962926E-01   0.180788768E+01  -0.886832634E-02  -0.111369198E-01
 0.420927270E+00   0.370442445E-01   0.180724817E+01  -0.721922685E-02  -0.112473127E-01
 0.471350337E+00   0.371909768E-01   0.180657302E+01  -0.546772634E-02  -0.112641638E-01
 0.524382457E+00   0.374482128E-01   0.180585393E+01  -0.360626101E-02  -0.113315438E-01
 0.579971813E+00   0.378344466E-01   0.180508528E+01  -0.162260233E-02  -0.115981277E-01
 0.638064089E+00   0.382250094E-01   0.180414232E+01   0.411862403E-03  -0.204408705E-01
 0.698602525E+00   0.380907148E-01   0.180260519E+01   0.214215867E-02  -0.208548445E-01
 0.761527970E+00   0.381278036E-01   0.180103373E+01   0.395349160E-02  -0.209789423E-01
 0.826778940E+00   0.383279808E-01   0.179939518E+01   0.584410906E-02  -0.212637358E-01
 0.894291679E+00   0.386260522E-01   0.179762060E+01   0.776314094E-02  -0.263121426E-01
 0.964000221E+00   0.385877502E-01   0.179544174E+01   0.934325397E-02  -0.266250695E-01
 0.103583646E+01   0.387450743E-01   0.179318999E+01   0.109761948E-01  -0.267606535E-01
 0.110973019E+01   0.391185829E-01   0.179084145E+01   0.126780120E-01  -0.270518147E-01
 0.118560923E+01   0.397400071E-01   0.178836908E+01   0.144724327E-01  -0.275747081E-01
 0.126339943E+01   0.406047365E-01   0.178572415E+01   0.163454185E-01  -0.317143825E-01
 0.134302479E+01   0.407403588E-01   0.178263697E+01   0.173323494E-01  -0.340233582E-01
 0.142440750E+01   0.410838000E-01   0.177943020E+01   0.182886133E-01  -0.342787086E-01
 0.150746804E+01   0.417334276E-01   0.177607863E+01   0.192940018E-01  -0.348563371E-01
 0.159212526E+01   0.423538732E-01   0.177253524E+01   0.199884714E-01  -0.369573379E-01
 0.167829644E+01   0.421011232E-01   0.176892029E+01   0.195023212E-01  -0.369231833E-01
 0.176589739E+01   0.421858508E-01   0.176525907E+01   0.190297236E-01  -0.369433964E-01
 0.185484251E+01   0.425947543E-01   0.176150080E+01   0.185322268E-01  -0.362181204E-01
 0.194504489E+01   0.420199697E-01   0.175807613E+01   0.167556871E-01  -0.329344275E-01
 0.203641640E+01   0.416703572E-01   0.175472848E+01   0.148785069E-01  -0.326660986E-01
 0.212886777E+01   0.416612704E-01   0.175137573E+01   0.129845735E-01  -0.325983574E-01
 0.222230865E+01   0.417183560E-01   0.174814028E+01   0.108175792E-01  -0.260621199E-01
 0.231664774E+01   0.413764131E-01   0.174535957E+01   0.803563014E-02  -0.269171769E-01
 0.241179288E+01   0.414041665E-01   0.174257866E+01   0.524925021E-02  -0.268262709E-01
 0.250765110E+01   0.418030294E-01   0.173975682E+01   0.240519516E-02  -0.270624738E-01
 0.260412873E+01   0.423208621E-01   0.173708345E+01  -0.689255730E-03  -0.169974080E-01
 0.270113151E+01   0.416487667E-01   0.173576389E+01  -0.459854062E-02  -0.114060397E-01
 0.279856465E+01   0.412759848E-01   0.173456623E+01  -0.847300304E-02  -0.112198987E-01
 0.289633297E+01   0.412928633E-01   0.173338035E+01  -0.123295403E-01  -0.112105577E-01
 0.299434092E+01   0.417093636E-01   0.173217952E+01  -0.162361711E-01  -0.113349644E-01
 0.309249275E+01   0.425367635E-01   0.173095201E+01  -0.202676810E-01  -0.111146818E-01
 0.319069256E+01   0.430040055E-01   0.173048533E+01  -0.244667879E-01   0.271868368E-02
 0.328884439E+01   0.430846796E-01   0.173081907E+01  -0.286771375E-01   0.318290136E-02
 0.338685234E+01   0.435804371E-01   0.173116123E+01  -0.329374405E-01   0.324456011E-02
 0.348462065E+01   0.445151823E-01   0.173151574E+01  -0.373280063E-01   0.332287475E-02
 0.358205380E+01   0.459330199E-01   0.173188855E+01  -0.419396195E-01   0.333308035E-02
 0.367905658E+01   0.471396993E-01   0.173294414E+01  -0.464895426E-01   0.192001810E-01
 0.377553421E+01   0.478302001E-01   0.173490077E+01  -0.506868065E-01   0.188453480E-01
 0.387139242E+01   0.489221629E-01   0.173697513E+01  -0.549728338E-01   0.241484002E-01
 0.396653756E+01   0.498044432E-01   0.173964038E+01  -0.589376844E-01   0.252898752E-01
 0.406087666E+01   0.511875089E-01   0.174239800E+01  -0.630584570E-01   0.259997747E-01
 0.415431754E+01   0.530148432E-01   0.174536250E+01  -0.673264900E-01   0.356272097E-01
 0.424676890E+01   0.537741057E-01   0.174929355E+01  -0.704049490E-01   0.427873094E-01
 0.433814041E+01   0.538207312E-01   0.175376211E+01  -0.724511789E-01   0.441381785E-01
 0.442834280E+01   0.543297225E-01   0.175821203E+01  -0.745084678E-01   0.445348623E-01
 0.451728792E+01   0.547523713E-01   0.176282241E+01  -0.760692740E-01   0.481834026E-01
 0.460488886E+01   0.545286254E-01   0.176758690E+01  -0.765696236E-01   0.480184120E-01
 0.469106005E+01   0.547542704E-01   0.177227081E+01  -0.770975870E-01   0.482644055E-01
 0.477571727E+01   0.541156806E-01   0.177686225E+01  -0.763629721E-01   0.456530709E-01
 0.485877781E+01   0.535127481E-01   0.178124323E+01  -0.752961529E-01   0.451680219E-01
 0.494016052E+01   0.532405276E-01   0.178545912E+01  -0.742213056E-01   0.425408166E-01
 0.501978587E+01   0.521953959E-01   0.178923071E+01  -0.721044705E-01   0.382530981E-01
 0.509757607E+01   0.514209867E-01   0.179275807E+01  -0.700090413E-01   0.376140746E-01
 0.517345511E+01   0.509771631E-01   0.179611689E+01  -0.680101041E-01   0.372790422E-01
 0.524734885E+01   0.498537917E-01   0.179885339E+01  -0.652443910E-01   0.204192065E-01
 0.531918509E+01   0.480660559E-01   0.180084671E+01  -0.618409925E-01   0.205897166E-01
 0.538889363E+01   0.466689366E-01   0.180265558E+01  -0.587466083E-01   0.199088755E-01
 0.545640637E+01   0.455958042E-01   0.180431718E+01  -0.559030740E-01   0.192988570E-01
 0.552165734E+01   0.447945967E-01   0.180585902E+01  -0.532653166E-01   0.189388944E-01
 0.558458278E+01   0.442232067E-01   0.180730104E+01  -0.507978594E-01   0.186190763E-01
 0.564512122E+01   0.438481517E-01   0.180865854E+01  -0.484735522E-01   0.183798143E-01
 0.570321349E+01   0.436447924E-01   0.180994558E+01  -0.462728723E-01   0.181718272E-01
 0.575880285E+01   0.431053611E-01   0.181075053E+01  -0.439384255E-01   0.306920280E-02
 0.581183497E+01   0.420532322E-01   0.181090508E+01  -0.414517115E-01   0.267239445E-02
 0.586225804E+01   0.412301229E-01   0.181106867E+01  -0.392026660E-01   0.256746827E-02
 0.591002278E+01   0.405726924E-01   0.181121796E+01  -0.371470147E-01   0.248938293E-02
 0.595508254E+01   0.400557311E-01   0.181135646E+01  -0.352636634E-01   0.238984341E-02
 0.599739328E+01   0.396549298E-01   0.181148397E+01  -0.335351906E-01   0.243800060E-02
 0.603691365E+01   0.393480070E-01   0.181159831E+01  -0.319483990E-01   0.234728086E-02
 0.607360506E+01   0.391218835E-01   0.181170334E+01  -0.304950232E-01   0.241953673E-02
 0.610743164E+01   0.389655985E-01   0.181180284E+01  -0.291688957E-01   0.241061193E-02
 0.613836035E+01   0.388599275E-01   0.181189061E+01  -0.279640038E-01   0.230456544E-02
 0.616636096E+01   0.387954917E-01   0.181196856E+01  -0.268776964E-01   0.237406919E-02
 0.619140611E+01   0.387663360E-01   0.181204068E+01  -0.259087112E-01   0.239114911E-02
 0.621347135E+01   0.387604798E-01   0.181210383E+01  -0.250557315E-01   0.234937591E-02
 0.623253511E+01   0.387685045E-01   0.181215629E+01  -0.243185796E-01   0.226872374E-02
 0.624857876E+01   0.387852675E-01   0.181219955E+01  -0.236977531E-01   0.229802133E-02
 0.626158666E+01   0.388071624E-01   0.181223561E+01  -0.231937898E-01   0.234349045E-02
 0.627154613E+01   0.388289893E-01   0.181226385E+01  -0.228075559E-01   0.237791623E-02
 0.627844763E+01   0.388466902E-01   0.181228375E+01  -0.225397207E-01   0.240156888E-02
 0.628228595E+01   0.388574472E-01   0.181229493E+01  -0.223906944E-01   0.241465026E-02
 0.899353865E-03   0.599195644E-01   0.183335703E+01  -0.223019097E-01  -0.103219894E-01
 0.473767679E-02   0.598696850E-01   0.183330648E+01  -0.220722516E-01  -0.103171440E-01
 0.116391775E-01   0.597823708E-01   0.183321577E+01  -0.216601591E-01  -0.103080980E-01
 0.215986473E-01   0.596617412E-01   0.183308529E+01  -0.210673864E-01  -0.102942679E-01
 0.346065430E-01   0.595137473E-01   0.183291562E+01  -0.202965794E-01  -0.102747761E-01
 0.506501997E-01   0.593461117E-01   0.183270751E+01  -0.193511633E-01  -0.102518676E-01
 0.697139564E-01   0.591677408E-01   0.183246152E+01  -0.182342688E-01  -0.102359735E-01
 0.917791922E-01   0.589890999E-01   0.183217833E+01  -0.169494075E-01  -0.102211661E-01
 0.116824351E+00   0.588219341E-01   0.183185849E+01  -0.154995857E-01  -0.102083306E-01
 0.144824962E+00   0.586793354E-01   0.183150253E+01  -0.138872298E-01  -0.102028633E-01
 0.175753667E+00   0.585746165E-01   0.183110978E+01  -0.121140211E-01  -0.102173363E-01
 0.209580248E+00   0.585282414E-01   0.183068505E+01  -0.101790165E-01  -0.101333724E-01
 0.246271653E+00   0.585513075E-01   0.183022221E+01  -0.808157595E-02  -0.102584391E-01
 0.285792031E+00   0.586623338E-01   0.182972040E+01  -0.581780556E-02  -0.102108019E-01
 0.328102769E+00   0.588842020E-01   0.182918063E+01  -0.338069482E-02  -0.106056886E-01
 0.373162524E+00   0.592597023E-01   0.182861877E+01  -0.751602223E-03  -0.127648638E-01
 0.420927270E+00   0.592578077E-01   0.182752275E+01   0.185733694E-02  -0.214218999E-01
 0.471350337E+00   0.592061225E-01   0.182618755E+01   0.452912666E-02  -0.213547095E-01
 0.524382457E+00   0.593220295E-01   0.182478862E+01   0.734550464E-02  -0.214351824E-01
 0.579971813E+00   0.596259612E-01   0.182331322E+01   0.103194222E-01  -0.213074098E-01
 0.638064089E+00   0.599928252E-01   0.182162686E+01   0.133783082E-01  -0.261540732E-01
 0.698602525E+00   0.603719682E-01   0.181966683E+01   0.164723527E-01  -0.265541332E-01
 0.761527970E+00   0.610117106E-01   0.181759670E+01   0.197440298E-01  -0.269412766E-01
 0.826778940E+00   0.617674513E-01   0.181527006E+01   0.230892932E-01  -0.349975548E-01
 0.894291679E+00   0.621099617E-01   0.181232300E+01   0.260752717E-01  -0.358498648E-01
 0.964000221E+00   0.626102307E-01   0.180914067E+01   0.290769418E-01  -0.424297133E-01
 0.103583646E+01   0.629310274E-01   0.180552015E+01   0.317831041E-01  -0.420934801E-01
 0.110973019E+01   0.636193770E-01   0.180174196E+01   0.346203808E-01  -0.426612210E-01
 0.118560923E+01   0.646285493E-01   0.179772014E+01   0.375374915E-01  -0.467347686E-01
 0.126339943E+01   0.651664612E-01   0.179315549E+01   0.397559675E-01  -0.502060024E-01
 0.134302479E+01   0.660943926E-01   0.178836250E+01   0.420314649E-01  -0.508320273E-01
 0.142440750E+01   0.668941008E-01   0.178319488E+01   0.438228951E-01  -0.569969907E-01
 0.150746804E+01   0.673760936E-01   0.177770145E+01   0.448852651E-01  -0.575165258E-01
 0.159212526E+01   0.678493248E-01   0.177199124E+01   0.454781255E-01  -0.600213260E-01
 0.167829644E+01   0.679012148E-01   0.176615211E+01   0.451534761E-01  -0.596902601E-01
 0.176589739E+01   0.682844430E-01   0.176020037E+01   0.446333594E-01  -0.582961116E-01
 0.185484251E+01   0.676888728E-01   0.175446823E+01   0.426207668E-01  -0.570821157E-01
 0.194504489E+01   0.675698489E-01   0.174873550E+01   0.405369600E-01  -0.545505045E-01
 0.203641640E+01   0.667322647E-01   0.174347630E+01   0.372724192E-01  -0.514031580E-01
 0.212886777E+01   0.664182926E-01   0.173826557E+01   0.339853813E-01  -0.508802989E-01
 0.222230865E+01   0.659028530E-01   0.173347465E+01   0.300480179E-01  -0.451415644E-01
 0.231664774E+01   0.656301923E-01   0.172890098E+01   0.258502496E-01  -0.449457084E-01
 0.241179288E+01   0.656456034E-01   0.172451122E+01   0.214113581E-01  -0.336802013E-01
 0.250765110E+01   0.645024926E-01   0.172146793E+01   0.158507021E-01  -0.286102642E-01
 0.260412873E+01   0.639176403E-01   0.171853163E+01   0.103674642E-01  -0.283379064E-01
 0.270113151E+01   0.639187092E-01   0.171561950E+01   0.489639718E-02  -0.284209508E-01
 0.279856465E+01   0.643290557E-01   0.171285630E+01  -0.719083595E-03  -0.178757507E-01
 0.289633297E+01   0.637712444E-01   0.171157464E+01  -0.687164045E-02  -0.113833485E-01
 0.299434092E+01   0.637270475E-01   0.171040010E+01  -0.130057588E-01  -0.113843853E-01
 0.309249275E+01   0.642928634E-01   0.170922213E+01  -0.191999162E-01  -0.110188084E-01
 0.319069256E+01   0.647319615E-01   0.170878355E+01  -0.255331720E-01   0.264402483E-02
 0.328884439E+01   0.650388201E-01   0.170910252E+01  -0.318982416E-01   0.311073844E-02
 0.338685234E+01   0.659804932E-01   0.170943150E+01  -0.383763566E-01   0.319417325E-02
 0.348462065E+01   0.674951285E-01   0.170987469E+01  -0.450573502E-01   0.116018448E-01
 0.358205380E+01   0.682259533E-01   0.171172337E+01  -0.514443676E-01   0.182860453E-01
 0.367905658E+01   0.693165457E-01   0.171389391E+01  -0.578430093E-01   0.220742063E-01
 0.377553421E+01   0.709918189E-01   0.171623965E+01  -0.644062407E-01   0.215472162E-01
 0.387139242E+01   0.723560436E-01   0.171951006E+01  -0.705971181E-01   0.373680078E-01
 0.396653756E+01   0.737449410E-01   0.172339467E+01  -0.765224460E-01   0.373585219E-01
 0.406087666E+01   0.751446026E-01   0.172787059E+01  -0.821083109E-01   0.454526984E-01
 0.415431754E+01   0.769983936E-01   0.173266329E+01  -0.876720248E-01   0.454407690E-01
 0.424676890E+01   0.783161232E-01   0.173827519E+01  -0.923345298E-01   0.620853670E-01
 0.433814041E+01   0.789465397E-01   0.174457673E+01  -0.958378204E-01   0.631132598E-01
 0.442834280E+01   0.797616252E-01   0.175108487E+01  -0.989212723E-01   0.684747309E-01
 0.451728792E+01   0.801776100E-01   0.175789343E+01  -0.101012197E+00   0.687186349E-01
 0.460488886E+01   0.803703763E-01   0.176481440E+01  -0.102262223E+00   0.705602999E-01
 0.469106005E+01   0.803917676E-01   0.177172404E+01  -0.102729254E+00   0.709754033E-01
 0.477571727E+01   0.797147566E-01   0.177848232E+01  -0.101910733E+00   0.679657141E-01
 0.485877781E+01   0.792724805E-01   0.178500212E+01  -0.100780143E+00   0.673139966E-01
 0.494016052E+01   0.780415972E-01   0.179105980E+01  -0.983817256E-01   0.612060920E-01
 0.501978587E+01   0.772604396E-01   0.179681544E+01  -0.959943890E-01   0.597629650E-01
 0.509757607E+01   0.760204903E-01   0.180200093E+01  -0.928060860E-01   0.528343255E-01
 0.517345511E+01   0.750641202E-01   0.180683435E+01  -0.895812830E-01   0.506752237E-01
 0.524734885E+01   0.734935845E-01   0.181090497E+01  -0.855815238E-01   0.389871889E-01
 0.531918509E+01   0.716394131E-01   0.181428905E+01  -0.812060793E-01   0.361531161E-01
 0.538889363E+01   0.702604944E-01   0.181742556E+01  -0.771425173E-01   0.352846468E-01
 0.545640637E+01   0.692849589E-01   0.182036051E+01  -0.733325925E-01   0.346410833E-01
 0.552165734E+01   0.685198969E-01   0.182303064E+01  -0.696367979E-01   0.294288530E-01
 0.558458278E+01   0.674101512E-01   0.182505596E+01  -0.657108101E-01   0.174700688E-01
 0.564512122E+01   0.659605203E-01   0.182642026E+01  -0.616446371E-01   0.170972034E-01
 0.570321349E+01   0.648430818E-01   0.182767730E+01  -0.578898260E-01   0.166765606E-01
 0.575880285E+01   0.640069735E-01   0.182884409E+01  -0.544026631E-01   0.164726210E-01
 0.581183497E+01   0.634097348E-01   0.182993278E+01  -0.511494831E-01   0.162790514E-01
 0.586225804E+01   0.630100519E-01   0.183094732E+01  -0.481023759E-01   0.160272689E-01
 0.591002278E+01   0.627693248E-01   0.183188688E+01  -0.452393369E-01   0.113594992E-01
 0.595508254E+01   0.621037415E-01   0.183222823E+01  -0.423688620E-01   0.209749840E-02
 0.599739328E+01   0.614280812E-01   0.183237397E+01  -0.396734073E-01   0.293100639E-02
 0.603691365E+01   0.609148698E-01   0.183251447E+01  -0.372061539E-01   0.283719352E-02
 0.607360506E+01   0.605321871E-01   0.183264515E+01  -0.349494436E-01   0.276253814E-02
 0.610743164E+01   0.602527334E-01   0.183276206E+01  -0.328909389E-01   0.282324863E-02
 0.613836035E+01   0.600625975E-01   0.183287132E+01  -0.310239290E-01   0.281102950E-02
 0.616636096E+01   0.599386298E-01   0.183296758E+01  -0.293421283E-01   0.272304399E-02
 0.619140611E+01   0.598659911E-01   0.183305153E+01  -0.278424944E-01   0.275970548E-02
 0.621347135E+01   0.598358881E-01   0.183312804E+01  -0.265238038E-01   0.279524011E-02
 0.623253511E+01   0.598333039E-01   0.183319407E+01  -0.253850439E-01   0.277701895E-02
 0.624857876E+01   0.598476431E-01   0.183324931E+01  -0.244265084E-01   0.277352725E-02
 0.626158666E+01   0.598705623E-01   0.183329409E+01  -0.236486745E-01   0.277305207E-02
 0.627154613E+01   0.598949512E-01   0.183332839E+01  -0.230527083E-01   0.277237486E-02
 0.627844763E+01   0.599153316E-01   0.183335216E+01  -0.226395152E-01   0.277174740E-02
 0.628228595E+01   0.599278992E-01   0.183336537E+01  -0.224096391E-01   0.277134276E-02
 0.899353865E-03   0.860227245E-01   0.185946018E+01  -0.222784065E-01  -0.824973641E-02
 0.473767679E-02   0.859811370E-01   0.185941764E+01  -0.219484281E-01  -0.841088836E-02
 0.116391775E-01   0.859076967E-01   0.185933933E+01  -0.213559058E-01  -0.870075859E-02
 0.215986473E-01   0.858047431E-01   0.185922220E+01  -0.205026472E-01  -0.911930648E-02
 0.346065430E-01   0.856756627E-01   0.185906187E+01  -0.193914279E-01  -0.966636192E-02
 0.506501997E-01   0.855252051E-01   0.185885303E+01  -0.180258407E-01  -0.101717905E-01
 0.697139564E-01   0.853719049E-01   0.185860204E+01  -0.164089211E-01  -0.100535709E-01
 0.917791922E-01   0.852361540E-01   0.185831492E+01  -0.145438619E-01  -0.996807496E-02
 0.116824351E+00   0.851365280E-01   0.185799372E+01  -0.124323830E-01  -0.994588050E-02
 0.144824962E+00   0.850858678E-01   0.185763263E+01  -0.100762922E-01  -0.100189899E-01
 0.175753667E+00   0.851050716E-01   0.185723153E+01  -0.747511157E-02  -0.100325198E-01
 0.209580248E+00   0.852173247E-01   0.185679019E+01  -0.462660269E-02  -0.998237211E-02
 0.246271653E+00   0.854721653E-01   0.185633073E+01  -0.151821501E-02  -0.117702484E-01
 0.285792031E+00   0.855128768E-01   0.185548189E+01   0.175172808E-02  -0.204593428E-01
 0.328102769E+00   0.854070449E-01   0.185428850E+01   0.516659729E-02  -0.216713412E-01
 0.373162524E+00   0.854722672E-01   0.185302750E+01   0.880415183E-02  -0.219051030E-01
 0.420927270E+00   0.857237555E-01   0.185167846E+01   0.126715571E-01  -0.220641210E-01
 0.471350337E+00   0.862060539E-01   0.185024329E+01   0.167895188E-01  -0.223436805E-01
 0.524382457E+00   0.869809428E-01   0.184873070E+01   0.211944248E-01  -0.230265688E-01
 0.579971813E+00   0.873768049E-01   0.184652636E+01   0.255266430E-01  -0.359817892E-01
 0.638064089E+00   0.876210319E-01   0.184381909E+01   0.298349967E-01  -0.369679665E-01
 0.698602525E+00   0.881768564E-01   0.184095817E+01   0.343550387E-01  -0.374302323E-01
 0.761527970E+00   0.891017411E-01   0.183792782E+01   0.391268904E-01  -0.381782726E-01
 0.826778940E+00   0.903821559E-01   0.183464901E+01   0.441429510E-01  -0.446369105E-01
 0.894291679E+00   0.909346114E-01   0.183036889E+01   0.485520722E-01  -0.521805408E-01
 0.964000221E+00   0.917649650E-01   0.182576562E+01   0.530271229E-01  -0.529156745E-01
 0.103583646E+01   0.928638311E-01   0.182078009E+01   0.575339673E-01  -0.597892131E-01
 0.110973019E+01   0.939475412E-01   0.181523512E+01   0.617816079E-01  -0.612715766E-01
 0.118560923E+01   0.954764643E-01   0.180931077E+01   0.661250999E-01  -0.678310556E-01
 0.126339943E+01   0.962666757E-01   0.180256573E+01   0.693983502E-01  -0.726307564E-01
 0.134302479E+01   0.971536045E-01   0.179537602E+01   0.722884252E-01  -0.794659866E-01
 0.142440750E+01   0.979600942E-01   0.178772569E+01   0.745566827E-01  -0.782850295E-01
 0.150746804E+01   0.984985270E-01   0.177967106E+01   0.759453122E-01  -0.838244868E-01
 0.159212526E+01   0.991186764E-01   0.177132451E+01   0.767403688E-01  -0.870351626E-01
 0.167829644E+01   0.994232051E-01   0.176276905E+01   0.764933803E-01  -0.865071702E-01
 0.176589739E+01   0.993368406E-01   0.175417963E+01   0.750964881E-01  -0.866257246E-01
 0.185484251E+01   0.992388273E-01   0.174562653E+01   0.729064746E-01  -0.844170228E-01
 0.194504489E+01   0.991143406E-01   0.173720363E+01   0.698980030E-01  -0.830717583E-01
 0.203641640E+01   0.983338098E-01   0.172928817E+01   0.655098813E-01  -0.749844278E-01
 0.212886777E+01   0.972790969E-01   0.172192351E+01   0.601641002E-01  -0.681563956E-01
 0.222230865E+01   0.962662820E-01   0.171506284E+01   0.541922328E-01  -0.679042213E-01
 0.231664774E+01   0.955094166E-01   0.170862521E+01   0.477970469E-01  -0.617036786E-01
 0.241179288E+01   0.944862597E-01   0.170301617E+01   0.406401701E-01  -0.505847305E-01
 0.250765110E+01   0.934247182E-01   0.169816537E+01   0.329821248E-01  -0.442739598E-01
 0.260412873E+01   0.927907188E-01   0.169372947E+01   0.251494775E-01  -0.447270692E-01
 0.270113151E+01   0.920466519E-01   0.169017622E+01   0.168889245E-01  -0.305667388E-01
 0.279856465E+01   0.915586023E-01   0.168721305E+01   0.843906629E-02  -0.273259002E-01
 0.289633297E+01   0.915903101E-01   0.168458826E+01  -0.116223763E-03  -0.176130049E-01
 0.299434092E+01   0.910868807E-01   0.168333635E+01  -0.899153800E-02  -0.121967344E-01
 0.309249275E+01   0.914215345E-01   0.168212615E+01  -0.178684223E-01  -0.115970458E-01
 0.319069256E+01   0.918672953E-01   0.168168092E+01  -0.268649809E-01   0.280239619E-02
 0.328884439E+01   0.924249961E-01   0.168201271E+01  -0.359163541E-01   0.334999423E-02
 0.338685234E+01   0.937771542E-01   0.168246680E+01  -0.451260793E-01   0.116808222E-01
 0.348462065E+01   0.946086884E-01   0.168434065E+01  -0.541764531E-01   0.192230788E-01
 0.358205380E+01   0.963237508E-01   0.168630738E+01  -0.634240760E-01   0.186083252E-01
 0.367905658E+01   0.978650801E-01   0.168937047E+01  -0.724587432E-01   0.387005429E-01
 0.377553421E+01   0.994702789E-01   0.169329443E+01  -0.812745491E-01   0.392839557E-01
 0.387139242E+01   0.101899889E+00   0.169749011E+01  -0.902938102E-01   0.511870422E-01
 0.396653756E+01   0.103422629E+00   0.170325531E+01  -0.983208853E-01   0.603699178E-01
 0.406087666E+01   0.105529302E+00   0.170944569E+01  -0.106269288E+00   0.617166028E-01
 0.415431754E+01   0.107611022E+00   0.171645201E+01  -0.113639858E+00   0.784486656E-01
 0.424676890E+01   0.109170369E+00   0.172442208E+01  -0.119903990E+00   0.835505271E-01
 0.433814041E+01   0.110444417E+00   0.173306213E+01  -0.125155559E+00   0.868655024E-01
 0.442834280E+01   0.111657113E+00   0.174214650E+01  -0.129538716E+00   0.935059499E-01
 0.451728792E+01   0.112664588E+00   0.175159507E+01  -0.132882758E+00   0.977859296E-01
 0.460488886E+01   0.113044096E+00   0.176130883E+01  -0.134747315E+00   0.991851565E-01
 0.469106005E+01   0.112797374E+00   0.177103276E+01  -0.135127489E+00   0.991060509E-01
 0.477571727E+01   0.112161284E+00   0.178053574E+01  -0.134292218E+00   0.958323545E-01
 0.485877781E+01   0.111088265E+00   0.178964124E+01  -0.132255892E+00   0.887127649E-01
 0.494016052E+01   0.109797342E+00   0.179822955E+01  -0.129317501E+00   0.833410324E-01
 0.501978587E+01   0.107982329E+00   0.180611028E+01  -0.125276476E+00   0.800395285E-01
 0.509757607E+01   0.106362501E+00   0.181340163E+01  -0.120924811E+00   0.710520697E-01
 0.517345511E+01   0.104847863E+00   0.182008488E+01  -0.116255154E+00   0.698465728E-01
 0.524734885E+01   0.103287886E+00   0.182609428E+01  -0.111213249E+00   0.572361820E-01
 0.531918509E+01   0.101167393E+00   0.183112692E+01  -0.105462788E+00   0.534400786E-01
 0.538889363E+01   0.995121529E-01   0.183573858E+01  -0.999524279E-01   0.449676097E-01
 0.545640637E+01   0.978929483E-01   0.183973528E+01  -0.943809808E-01   0.451790705E-01
 0.552165734E+01   0.966922351E-01   0.184342198E+01  -0.890757502E-01   0.393641320E-01
 0.558458278E+01   0.951086390E-01   0.184626637E+01  -0.835244364E-01   0.332316853E-01
 0.564512122E+01   0.936427267E-01   0.184865602E+01  -0.781332899E-01   0.287358366E-01
 0.570321349E+01   0.925156222E-01   0.185082477E+01  -0.730543927E-01   0.282632522E-01
 0.575880285E+01   0.917325266E-01   0.185284441E+01  -0.682839569E-01   0.268454471E-01
 0.581183497E+01   0.906526605E-01   0.185420502E+01  -0.635202229E-01   0.154681370E-01
 0.586225804E+01   0.896582236E-01   0.185526945E+01  -0.589908323E-01   0.159192583E-01
 0.591002278E+01   0.889396152E-01   0.185625622E+01  -0.547797698E-01   0.157595448E-01
 0.595508254E+01   0.884523552E-01   0.185717140E+01  -0.508593156E-01   0.156676971E-01
 0.599739328E+01   0.881653245E-01   0.185802669E+01  -0.472112106E-01   0.154201840E-01
 0.603691365E+01   0.878869259E-01   0.185867256E+01  -0.437823355E-01   0.554046280E-02
 0.607360506E+01   0.872452432E-01   0.185877379E+01  -0.405066629E-01   0.268918457E-02
 0.610743164E+01   0.868007865E-01   0.185890112E+01  -0.375329622E-01   0.275104505E-02
 0.613836035E+01   0.864771928E-01   0.185900940E+01  -0.348360453E-01   0.273598226E-02
 0.616636096E+01   0.862557059E-01   0.185910528E+01  -0.324095816E-01   0.259852421E-02
 0.619140611E+01   0.861126079E-01   0.185918768E+01  -0.302480145E-01   0.243058476E-02
 0.621347135E+01   0.860253900E-01   0.185925393E+01  -0.283481304E-01   0.235629436E-02
 0.623253511E+01   0.859845371E-01   0.185931177E+01  -0.267090185E-01   0.239826181E-02
 0.624857876E+01   0.859754046E-01   0.185936143E+01  -0.253305292E-01   0.239931960E-02
 0.626158666E+01   0.859840016E-01   0.185940145E+01  -0.242126049E-01   0.239207533E-02
 0.627154613E+01   0.860002477E-01   0.185943192E+01  -0.233564831E-01   0.238626655E-02
 0.627844763E+01   0.860164217E-01   0.185945296E+01  -0.227631320E-01   0.238210930E-02
 0.628228595E+01   0.860271586E-01   0.185946462E+01  -0.224331018E-01   0.237975085E-02
 0.899353865E-03   0.106172713E+00   0.187961016E+01  -0.222603301E-01  -0.923382603E-02
 0.473767679E-02   0.106126004E+00   0.187956229E+01  -0.218531826E-01  -0.923303042E-02
 0.116391775E-01   0.106045993E+00   0.187947627E+01  -0.211218200E-01  -0.923127809E-02
 0.215986473E-01   0.105939536E+00   0.187935230E+01  -0.200680069E-01  -0.922801078E-02
 0.346065430E-01   0.105816513E+00   0.187919066E+01  -0.186944986E-01  -0.922240687E-02
 0.506501997E-01   0.105689762E+00   0.187899173E+01  -0.170048553E-01  -0.921589973E-02
 0.697139564E-01   0.105574670E+00   0.187875573E+01  -0.150016626E-01  -0.921580414E-02
 0.917791922E-01   0.105489414E+00   0.187848294E+01  -0.126876448E-01  -0.921498343E-02
 0.116824351E+00   0.105454853E+00   0.187817356E+01  -0.100641230E-01  -0.922704932E-02
 0.144824962E+00   0.105493298E+00   0.187782642E+01  -0.713111604E-02  -0.924778837E-02
 0.175753667E+00   0.105637462E+00   0.187744765E+01  -0.388509612E-02  -0.918013358E-02
 0.209580248E+00   0.105864724E+00   0.187698555E+01  -0.329902157E-03  -0.126179222E-01
 0.246271653E+00   0.105826614E+00   0.187607119E+01   0.344337499E-02  -0.214696674E-01
 0.285792031E+00   0.105840915E+00   0.187498537E+01   0.748261742E-02  -0.204434179E-01
 0.328102769E+00   0.106042811E+00   0.187382348E+01   0.118163456E-01  -0.205890944E-01
 0.373162524E+00   0.106462916E+00   0.187257358E+01   0.164564862E-01  -0.205651475E-01
 0.420927270E+00   0.107099508E+00   0.187118826E+01   0.214059563E-01  -0.251283638E-01
 0.471350337E+00   0.107332519E+00   0.186906604E+01   0.263828372E-01  -0.350721519E-01
 0.524382457E+00   0.107683446E+00   0.186665193E+01   0.315589472E-01  -0.348138796E-01
 0.579971813E+00   0.108367426E+00   0.186408444E+01   0.370296752E-01  -0.351702869E-01
 0.638064089E+00   0.109448783E+00   0.186135186E+01   0.428369934E-01  -0.350726354E-01
 0.698602525E+00   0.110272143E+00   0.185787741E+01   0.485656556E-01  -0.496013806E-01
 0.761527970E+00   0.110996881E+00   0.185377506E+01   0.542352389E-01  -0.504368062E-01
 0.826778940E+00   0.112214715E+00   0.184943466E+01   0.602067555E-01  -0.509072294E-01
 0.894291679E+00   0.113714292E+00   0.184463062E+01   0.663148312E-01  -0.598361454E-01
 0.964000221E+00   0.114753638E+00   0.183887459E+01   0.719118864E-01  -0.654368590E-01
 0.103583646E+01   0.116063924E+00   0.183260766E+01   0.774927516E-01  -0.726559312E-01
 0.110973019E+01   0.117501110E+00   0.182571376E+01   0.828758723E-01  -0.735567528E-01
 0.118560923E+01   0.119130206E+00   0.181819849E+01   0.880456008E-01  -0.831876272E-01
 0.126339943E+01   0.120539241E+00   0.180991064E+01   0.925329407E-01  -0.907752837E-01
 0.134302479E+01   0.121585905E+00   0.180089229E+01   0.960898753E-01  -0.935614388E-01