 TITLE="poloidal viscosity for solution of GS equation with flow"
 Variables ="theta", "r", "R [m] ","z [m]", "viscosity"
 ZONE I=         100 ,J=          44 ,F=Point
 0.899353865E-03   0.205002835E-01   0.172662007E+01  -0.502820514E-01  -0.258338440E-02
 0.473767679E-02   0.204905300E-01   0.172661009E+01  -0.502034358E-01  -0.258732738E-02
 0.116391775E-01   0.204736776E-01   0.172659207E+01  -0.500622387E-01  -0.259435550E-02
 0.215986473E-01   0.204509097E-01   0.172656593E+01  -0.498588362E-01  -0.260435462E-02
 0.346065430E-01   0.204239335E-01   0.172653150E+01  -0.495938113E-01  -0.261715089E-02
 0.506501997E-01   0.203949828E-01   0.172648862E+01  -0.492679176E-01  -0.262835184E-02
 0.697139564E-01   0.203673365E-01   0.172643766E+01  -0.488817339E-01  -0.262334160E-02
 0.917791922E-01   0.203447400E-01   0.172637891E+01  -0.484358813E-01  -0.262150675E-02
 0.116824351E+00   0.203310511E-01   0.172631226E+01  -0.479307278E-01  -0.262278551E-02
 0.144824962E+00   0.203307646E-01   0.172623772E+01  -0.473663686E-01  -0.262541329E-02
 0.175753667E+00   0.203489296E-01   0.172615525E+01  -0.467424715E-01  -0.263020169E-02
 0.209580248E+00   0.203908513E-01   0.172606446E+01  -0.460581879E-01  -0.263818402E-02
 0.246271653E+00   0.204638440E-01   0.172596621E+01  -0.453116290E-01  -0.275042344E-02
 0.285792031E+00   0.205357424E-01   0.172582260E+01  -0.445111874E-01  -0.564340732E-02
 0.328102769E+00   0.205033427E-01   0.172552936E+01  -0.436932348E-01  -0.667318652E-02
 0.373162524E+00   0.205155640E-01   0.172522346E+01  -0.428212925E-01  -0.676866873E-02
 0.420927270E+00   0.205717476E-01   0.172489584E+01  -0.418947223E-01  -0.681039372E-02
 0.471350337E+00   0.206803194E-01   0.172454504E+01  -0.409097591E-01  -0.716065434E-02
 0.524382457E+00   0.208080519E-01   0.172413199E+01  -0.398824151E-01  -0.797194717E-02
 0.579971813E+00   0.209289265E-01   0.172362655E+01  -0.388316809E-01  -0.120037705E-01
 0.638064089E+00   0.209406535E-01   0.172294039E+01  -0.378273689E-01  -0.116360507E-01
 0.698602525E+00   0.210335145E-01   0.172222603E+01  -0.367728145E-01  -0.117536503E-01
 0.761527970E+00   0.212056749E-01   0.172146811E+01  -0.356679954E-01  -0.125810540E-01
 0.826778940E+00   0.213664123E-01   0.172059018E+01  -0.345800666E-01  -0.136560695E-01
 0.894291679E+00   0.215871101E-01   0.171963495E+01  -0.334676661E-01  -0.155991450E-01
 0.964000221E+00   0.217226124E-01   0.171850668E+01  -0.324556788E-01  -0.164316244E-01
 0.103583646E+01   0.217857310E-01   0.171722630E+01  -0.315584534E-01  -0.179955245E-01
 0.110973019E+01   0.219516314E-01   0.171588604E+01  -0.306410197E-01  -0.180155894E-01
 0.118560923E+01   0.220984176E-01   0.171442293E+01  -0.298212695E-01  -0.200561262E-01
 0.126339943E+01   0.222896598E-01   0.171286404E+01  -0.290556265E-01  -0.200270617E-01
 0.134302479E+01   0.224422884E-01   0.171118741E+01  -0.284378277E-01  -0.218211683E-01
 0.142440750E+01   0.226166524E-01   0.170941885E+01  -0.279257422E-01  -0.223519540E-01
 0.150746804E+01   0.226189525E-01   0.170755125E+01  -0.277268693E-01  -0.229065891E-01
 0.159212526E+01   0.226689369E-01   0.170563653E+01  -0.276366993E-01  -0.230982019E-01
 0.167829644E+01   0.226574614E-01   0.170368869E+01  -0.277738238E-01  -0.230420891E-01
 0.176589739E+01   0.225735830E-01   0.170174351E+01  -0.281551677E-01  -0.221849402E-01
 0.185484251E+01   0.224750110E-01   0.169982138E+01  -0.287260467E-01  -0.213788396E-01
 0.194504489E+01   0.222435943E-01   0.169798816E+01  -0.295965197E-01  -0.208029326E-01
 0.203641640E+01   0.220781600E-01   0.169620724E+01  -0.305726743E-01  -0.190328290E-01
 0.212886777E+01   0.219237495E-01   0.169451006E+01  -0.317030342E-01  -0.188788363E-01
 0.222230865E+01   0.217954696E-01   0.169290331E+01  -0.329693771E-01  -0.172482048E-01
 0.231664774E+01   0.215810094E-01   0.169147498E+01  -0.344489965E-01  -0.145738458E-01
 0.241179288E+01   0.213235147E-01   0.169022721E+01  -0.360836559E-01  -0.126736235E-01
 0.250765110E+01   0.211644701E-01   0.168906760E+01  -0.377642382E-01  -0.125305738E-01
 0.260412873E+01   0.211181050E-01   0.168797913E+01  -0.394888798E-01  -0.910318147E-02
 0.270113151E+01   0.208606881E-01   0.168725015E+01  -0.414063870E-01  -0.744688900E-02
 0.279856465E+01   0.207702762E-01   0.168655958E+01  -0.433145974E-01  -0.734354754E-02
 0.289633297E+01   0.207609838E-01   0.168598010E+01  -0.452595287E-01  -0.324258054E-02
 0.299434092E+01   0.206440650E-01   0.168569913E+01  -0.472715922E-01  -0.301169134E-02
 0.309249275E+01   0.207260124E-01   0.168541876E+01  -0.492831430E-01  -0.285600066E-02
 0.319069256E+01   0.207861983E-01   0.168535864E+01  -0.513207722E-01   0.160532602E-02
 0.328884439E+01   0.208232868E-01   0.168552185E+01  -0.533556634E-01   0.178512821E-02
 0.338685234E+01   0.210638170E-01   0.168568634E+01  -0.554150115E-01   0.218875473E-02
 0.348462065E+01   0.211663777E-01   0.168618656E+01  -0.574195872E-01   0.640226610E-02
 0.358205380E+01   0.213689288E-01   0.168679042E+01  -0.594112672E-01   0.651423125E-02
 0.367905658E+01   0.217786939E-01   0.168741163E+01  -0.614501872E-01   0.861296105E-02
 0.377553421E+01   0.219031753E-01   0.168847243E+01  -0.632742870E-01   0.121086415E-01
 0.387139242E+01   0.221760572E-01   0.168959180E+01  -0.650857043E-01   0.121772607E-01
 0.396653756E+01   0.226309960E-01   0.169076238E+01  -0.669231032E-01   0.144205401E-01
 0.406087666E+01   0.227797791E-01   0.169230638E+01  -0.684142310E-01   0.175495482E-01
 0.415431754E+01   0.230706794E-01   0.169390257E+01  -0.698707551E-01   0.189914322E-01
 0.424676890E+01   0.232998548E-01   0.169565870E+01  -0.711199122E-01   0.195426027E-01
 0.433814041E+01   0.236311955E-01   0.169748089E+01  -0.722959974E-01   0.216180744E-01
 0.442834280E+01   0.237923851E-01   0.169945216E+01  -0.731394906E-01   0.229732376E-01
 0.451728792E+01   0.238360380E-01   0.170149883E+01  -0.736843089E-01   0.238434318E-01
 0.460488886E+01   0.239071363E-01   0.170355447E+01  -0.740695809E-01   0.243492761E-01
 0.469106005E+01   0.239040669E-01   0.170561021E+01  -0.741991116E-01   0.243556041E-01
 0.477571727E+01   0.238288194E-01   0.170762782E+01  -0.740815340E-01   0.240756551E-01
 0.485877781E+01   0.237841252E-01   0.170958893E+01  -0.738302377E-01   0.232152153E-01
 0.494016052E+01   0.236629642E-01   0.171146315E+01  -0.733522556E-01   0.232716184E-01
 0.501978587E+01   0.235472183E-01   0.171324479E+01  -0.727438711E-01   0.216577416E-01
 0.509757607E+01   0.232981050E-01   0.171487377E+01  -0.718914396E-01   0.208662386E-01
 0.517345511E+01   0.229863049E-01   0.171634651E+01  -0.708865040E-01   0.186201098E-01
 0.524734885E+01   0.227549102E-01   0.171772040E+01  -0.698762758E-01   0.184883395E-01
 0.531918509E+01   0.225452332E-01   0.171897601E+01  -0.688208897E-01   0.163816188E-01
 0.538889363E+01   0.223664780E-01   0.172012275E+01  -0.677411422E-01   0.161760846E-01
 0.545640637E+01   0.222145093E-01   0.172116446E+01  -0.666449600E-01   0.128869912E-01
 0.552165734E+01   0.218970011E-01   0.172196841E+01  -0.654100713E-01   0.113595410E-01
 0.558458278E+01   0.216532615E-01   0.172270059E+01  -0.642267478E-01   0.113345613E-01
 0.564512122E+01   0.215041628E-01   0.172339302E+01  -0.631092533E-01   0.112293640E-01
 0.570321349E+01   0.214382615E-01   0.172405247E+01  -0.620485887E-01   0.113535284E-01
 0.575880285E+01   0.213235188E-01   0.172457802E+01  -0.609769239E-01   0.634474509E-02
 0.581183497E+01   0.210862981E-01   0.172490675E+01  -0.598755531E-01   0.622051462E-02
 0.586225804E+01   0.209293184E-01   0.172522220E+01  -0.588523471E-01   0.611674097E-02
 0.591002278E+01   0.208309159E-01   0.172551711E+01  -0.578946350E-01   0.608135154E-02
 0.595508254E+01   0.207804788E-01   0.172579172E+01  -0.569970203E-01   0.599241812E-02
 0.599739328E+01   0.207771841E-01   0.172605425E+01  -0.561578569E-01   0.508407896E-02
 0.603691365E+01   0.206844376E-01   0.172618014E+01  -0.553431409E-01   0.204877223E-02
 0.607360506E+01   0.205762312E-01   0.172624579E+01  -0.545813253E-01   0.179781149E-02
 0.610743164E+01   0.205039810E-01   0.172630791E+01  -0.538856048E-01   0.179281089E-02
 0.613836035E+01   0.204582033E-01   0.172636382E+01  -0.532529836E-01   0.178939825E-02
 0.616636096E+01   0.204337808E-01   0.172641429E+01  -0.526822081E-01   0.178594421E-02
 0.619140611E+01   0.204254778E-01   0.172645930E+01  -0.521724797E-01   0.178410343E-02
 0.621347135E+01   0.204287470E-01   0.172649892E+01  -0.517235038E-01   0.178338262E-02
 0.623253511E+01   0.204395595E-01   0.172653314E+01  -0.513353048E-01   0.178322995E-02
 0.624857876E+01   0.204544117E-01   0.172656196E+01  -0.510082070E-01   0.178423735E-02
 0.626158666E+01   0.204703353E-01   0.172658535E+01  -0.507425379E-01   0.178509211E-02
 0.627154613E+01   0.204848774E-01   0.172660328E+01  -0.505388433E-01   0.178554609E-02
 0.627844763E+01   0.204961500E-01   0.172661571E+01  -0.503975460E-01   0.178575991E-02
 0.628228595E+01   0.205028429E-01   0.172662263E+01  -0.503189110E-01   0.178584346E-02
 0.899353865E-03   0.440216424E-01   0.175014142E+01  -0.502609107E-01  -0.232832624E-02
 0.473767679E-02   0.440125044E-01   0.175013180E+01  -0.500920537E-01  -0.232564052E-02
 0.116391775E-01   0.439977337E-01   0.175011454E+01  -0.497885334E-01  -0.232072112E-02
 0.215986473E-01   0.439801788E-01   0.175008971E+01  -0.493507380E-01  -0.231341741E-02
 0.346065430E-01   0.439639409E-01   0.175005741E+01  -0.487793162E-01  -0.230351510E-02
 0.506501997E-01   0.439543122E-01   0.175001773E+01  -0.480751081E-01  -0.231174247E-02
 0.697139564E-01   0.439563444E-01   0.174996937E+01  -0.472386175E-01  -0.240943881E-02
 0.917791922E-01   0.439794250E-01   0.174991412E+01  -0.462698007E-01  -0.206312440E-02
 0.116824351E+00   0.440435121E-01   0.174986306E+01  -0.451665107E-01  -0.271609854E-02
 0.144824962E+00   0.440525618E-01   0.174971121E+01  -0.439431290E-01  -0.689556409E-02
 0.175753667E+00   0.440548794E-01   0.174949599E+01  -0.425973845E-01  -0.631092208E-02
 0.209580248E+00   0.441097761E-01   0.174926441E+01  -0.411236303E-01  -0.640773874E-02
 0.246271653E+00   0.442385319E-01   0.174902351E+01  -0.395153738E-01  -0.752167723E-02
 0.285792031E+00   0.442708544E-01   0.174859495E+01  -0.378197030E-01  -0.111551213E-01
 0.328102769E+00   0.443461552E-01   0.174810035E+01  -0.360101135E-01  -0.112303989E-01
 0.373162524E+00   0.445179812E-01   0.174757397E+01  -0.340708206E-01  -0.120572355E-01
 0.420927270E+00   0.446398720E-01   0.174686307E+01  -0.320603265E-01  -0.151618470E-01
 0.471350337E+00   0.448240281E-01   0.174605603E+01  -0.299463473E-01  -0.153960544E-01
 0.524382457E+00   0.450576191E-01   0.174512313E+01  -0.277410287E-01  -0.185986890E-01
 0.579971813E+00   0.452425723E-01   0.174396419E+01  -0.255074900E-01  -0.201288623E-01
 0.638064089E+00   0.455643340E-01   0.174271930E+01  -0.231603993E-01  -0.210417798E-01
 0.698602525E+00   0.458156989E-01   0.174120272E+01  -0.208341243E-01  -0.252566566E-01
 0.761527970E+00   0.461563054E-01   0.173952695E+01  -0.184513710E-01  -0.266894230E-01
 0.826778940E+00   0.465195060E-01   0.173762515E+01  -0.160736409E-01  -0.296301141E-01
 0.894291679E+00   0.468398324E-01   0.173544492E+01  -0.137764194E-01  -0.320055166E-01
 0.964000221E+00   0.472934343E-01   0.173308818E+01  -0.114498036E-01  -0.343255445E-01
 0.103583646E+01   0.476324986E-01   0.173040313E+01  -0.932274924E-02  -0.374853766E-01
 0.110973019E+01   0.480064327E-01   0.172747811E+01  -0.730700148E-02  -0.398224404E-01
 0.118560923E+01   0.484164039E-01   0.172431128E+01  -0.543158255E-02  -0.423590544E-01
 0.126339943E+01   0.487082704E-01   0.172085806E+01  -0.387549920E-02  -0.449474145E-01
 0.134302479E+01   0.489697886E-01   0.171717779E+01  -0.259554229E-02  -0.468732422E-01
 0.142440750E+01   0.492203252E-01   0.171329906E+01  -0.160655616E-02  -0.478213727E-01
 0.150746804E+01   0.494165900E-01   0.170924715E+01  -0.982948082E-03  -0.493908692E-01
 0.159212526E+01   0.494748550E-01   0.170506499E+01  -0.836871695E-03  -0.501092735E-01
 0.167829644E+01   0.494481759E-01   0.170081396E+01  -0.113778860E-02  -0.498663963E-01
 0.176589739E+01   0.493285932E-01   0.169655691E+01  -0.190769800E-02  -0.490650391E-01
 0.185484251E+01   0.490941087E-01   0.169236152E+01  -0.317361437E-02  -0.478431651E-01
 0.194504489E+01   0.488517198E-01   0.168826088E+01  -0.483016285E-02  -0.460815556E-01
 0.203641640E+01   0.484559777E-01   0.168436412E+01  -0.700299478E-02  -0.424390026E-01
 0.212886777E+01   0.480212990E-01   0.168069021E+01  -0.956497531E-02  -0.397387977E-01
 0.222230865E+01   0.475592639E-01   0.167728045E+01  -0.124828172E-01  -0.356358087E-01
 0.231664774E+01   0.470841668E-01   0.167416863E+01  -0.157166449E-01  -0.334912139E-01
 0.241179288E+01   0.465788758E-01   0.167140418E+01  -0.192454055E-01  -0.286745735E-01
 0.250765110E+01   0.461706373E-01   0.166892017E+01  -0.229524344E-01  -0.239952622E-01
 0.260412873E+01   0.457438977E-01   0.166682534E+01  -0.268814718E-01  -0.225611616E-01
 0.270113151E+01   0.453466349E-01   0.166510126E+01  -0.309666439E-01  -0.175313227E-01
 0.279856465E+01   0.450818688E-01   0.166366435E+01  -0.351376932E-01  -0.128796529E-01
 0.289633297E+01   0.449178897E-01   0.166254616E+01  -0.393938080E-01  -0.877295507E-02
 0.299434092E+01   0.447586478E-01   0.166184549E+01  -0.437337380E-01  -0.844099403E-02
 0.309249275E+01   0.446973599E-01   0.166147630E+01  -0.481066052E-01  -0.288481079E-02
 0.319069256E+01   0.447623517E-01   0.166141139E+01  -0.524975439E-01   0.151001523E-02
 0.328884439E+01   0.449516408E-01   0.166165458E+01  -0.568955443E-01   0.713106472E-02
 0.338685234E+01   0.452319727E-01   0.166224147E+01  -0.612833849E-01   0.782915918E-02
 0.348462065E+01   0.455449792E-01   0.166322822E+01  -0.656190532E-01   0.112471647E-01
 0.358205380E+01   0.459255615E-01   0.166457759E+01  -0.698811454E-01   0.165182286E-01
 0.367905658E+01   0.464412072E-01   0.166622637E+01  -0.740765250E-01   0.214556971E-01
 0.377553421E+01   0.470040335E-01   0.166824861E+01  -0.781420313E-01   0.246850755E-01
 0.387139242E+01   0.475309523E-01   0.167069463E+01  -0.819903731E-01   0.281595606E-01
 0.396653756E+01   0.481239999E-01   0.167346302E+01  -0.856481076E-01   0.335697439E-01
 0.406087666E+01   0.487472555E-01   0.167655993E+01  -0.890626891E-01   0.365491369E-01
 0.415431754E+01   0.492481308E-01   0.168004046E+01  -0.920766282E-01   0.406905804E-01
 0.424676890E+01   0.498072464E-01   0.168375754E+01  -0.948054324E-01   0.433808081E-01
 0.433814041E+01   0.501980679E-01   0.168776863E+01  -0.970239318E-01   0.468534277E-01
 0.442834280E+01   0.505047126E-01   0.169196623E+01  -0.987814328E-01   0.488025079E-01
 0.451728792E+01   0.507778295E-01   0.169627587E+01  -0.100114990E+00   0.504061255E-01
 0.460488886E+01   0.508826391E-01   0.170066013E+01  -0.100889364E+00   0.514324100E-01
 0.469106005E+01   0.508591856E-01   0.170503542E+01  -0.101148105E+00   0.514479984E-01
 0.477571727E+01   0.507646810E-01   0.170933246E+01  -0.100963402E+00   0.506343815E-01
 0.485877781E+01   0.505289563E-01   0.171349000E+01  -0.100289030E+00   0.488533335E-01
 0.494016052E+01   0.501841962E-01   0.171745192E+01  -0.991884828E-01   0.476299150E-01
 0.501978587E+01   0.498202349E-01   0.172119455E+01  -0.977852888E-01   0.454214930E-01
 0.509757607E+01   0.494293760E-01   0.172469181E+01  -0.961081607E-01   0.426082035E-01
 0.517345511E+01   0.489806288E-01   0.172791132E+01  -0.941665300E-01   0.390146659E-01
 0.524734885E+01   0.484931439E-01   0.173084190E+01  -0.920186143E-01   0.370749759E-01
 0.531918509E+01   0.480705962E-01   0.173353146E+01  -0.897894991E-01   0.349023899E-01
 0.538889363E+01   0.475664728E-01   0.173589994E+01  -0.873910775E-01   0.319785862E-01
 0.545640637E+01   0.471432068E-01   0.173804746E+01  -0.849862956E-01   0.295970376E-01
 0.552165734E+01   0.467426352E-01   0.173995123E+01  -0.825542731E-01   0.253504778E-01
 0.558458278E+01   0.463284188E-01   0.174159532E+01  -0.800966074E-01   0.248394359E-01
 0.564512122E+01   0.460285918E-01   0.174309221E+01  -0.777170932E-01   0.206226100E-01
 0.570321349E+01   0.456525524E-01   0.174430714E+01  -0.753181214E-01   0.196854382E-01
 0.575880285E+01   0.454314358E-01   0.174544678E+01  -0.730469877E-01   0.187979397E-01
 0.581183497E+01   0.451423963E-01   0.174633968E+01  -0.707991836E-01   0.144826239E-01
 0.586225804E+01   0.449191044E-01   0.174711791E+01  -0.686547892E-01   0.146292625E-01
 0.591002278E+01   0.447731753E-01   0.174781159E+01  -0.666231942E-01   0.116521831E-01
 0.595508254E+01   0.445674014E-01   0.174830980E+01  -0.646621247E-01   0.107147674E-01
 0.599739328E+01   0.444586594E-01   0.174877513E+01  -0.628342053E-01   0.105511446E-01
 0.603691365E+01   0.443953996E-01   0.174917565E+01  -0.611238259E-01   0.694278420E-02
 0.607360506E+01   0.442424630E-01   0.174939420E+01  -0.595049385E-01   0.591616410E-02
 0.610743164E+01   0.441654773E-01   0.174960489E+01  -0.580229167E-01   0.581285574E-02
 0.613836035E+01   0.441437735E-01   0.174980147E+01  -0.566709915E-01   0.644620261E-02
 0.616636096E+01   0.441175769E-01   0.174993662E+01  -0.554430871E-01   0.221912008E-02
 0.619140611E+01   0.440374367E-01   0.174997189E+01  -0.543364773E-01   0.156053277E-02
 0.621347135E+01   0.440003357E-01   0.175001325E+01  -0.533654082E-01   0.191231491E-02
 0.623253511E+01   0.439862498E-01   0.175004963E+01  -0.525274704E-01   0.181387069E-02
 0.624857876E+01   0.439857579E-01   0.175007921E+01  -0.518224002E-01   0.180569255E-02
 0.626158666E+01   0.439937933E-01   0.175010332E+01  -0.512505176E-01   0.181586792E-02
 0.627154613E+01   0.440050695E-01   0.175012188E+01  -0.508125135E-01   0.182344047E-02
 0.627844763E+01   0.440154902E-01   0.175013479E+01  -0.505089220E-01   0.182857605E-02
 0.628228595E+01   0.440222092E-01   0.175014198E+01  -0.503400514E-01   0.183139243E-02
 0.899353865E-03   0.626025468E-01   0.176872231E+01  -0.502442070E-01  -0.201133522E-02
 0.473767679E-02   0.625935766E-01   0.176871266E+01  -0.500040522E-01  -0.201860021E-02
 0.116391775E-01   0.625798774E-01   0.176869543E+01  -0.495722992E-01  -0.203158654E-02
 0.215986473E-01   0.625656128E-01   0.176867081E+01  -0.489493721E-01  -0.205014940E-02
 0.346065430E-01   0.625567751E-01   0.176863911E+01  -0.481360094E-01  -0.207406780E-02
 0.506501997E-01   0.625611194E-01   0.176860069E+01  -0.471331534E-01  -0.210245744E-02
 0.697139564E-01   0.625869102E-01   0.176855466E+01  -0.459407238E-01  -0.213302774E-02
 0.917791922E-01   0.626300921E-01   0.176848628E+01  -0.445603281E-01  -0.411517491E-02
 0.116824351E+00   0.626322674E-01   0.176832517E+01  -0.430003476E-01  -0.660256420E-02
 0.144824962E+00   0.626693125E-01   0.176813303E+01  -0.412560196E-01  -0.596372335E-02
 0.175753667E+00   0.627551854E-01   0.176790821E+01  -0.393275684E-01  -0.735426143E-02
 0.209580248E+00   0.628195413E-01   0.176756478E+01  -0.372310918E-01  -0.104549594E-01
 0.246271653E+00   0.629242437E-01   0.176714549E+01  -0.349601541E-01  -0.108263533E-01
 0.285792031E+00   0.630531900E-01   0.176661547E+01  -0.325247357E-01  -0.140347828E-01
 0.328102769E+00   0.631886198E-01   0.176593758E+01  -0.299379161E-01  -0.143019796E-01
 0.373162524E+00   0.633982947E-01   0.176515495E+01  -0.271878437E-01  -0.175572137E-01
 0.420927270E+00   0.636182540E-01   0.176418478E+01  -0.243054956E-01  -0.188860926E-01
 0.471350337E+00   0.638836366E-01   0.176303730E+01  -0.212915744E-01  -0.228979503E-01
 0.524382457E+00   0.641983070E-01   0.176169189E+01  -0.181575931E-01  -0.235568951E-01
 0.579971813E+00   0.645303830E-01   0.176009812E+01  -0.149379235E-01  -0.287040775E-01
 0.638064089E+00   0.649471337E-01   0.175828862E+01  -0.116153118E-01  -0.302461179E-01
 0.698602525E+00   0.653499003E-01   0.175616084E+01  -0.827070515E-02  -0.332275751E-01
 0.761527970E+00   0.658586223E-01   0.175378719E+01  -0.485627081E-02  -0.378245916E-01
 0.826778940E+00   0.663541413E-01   0.175105804E+01  -0.148014799E-02  -0.398166507E-01
 0.894291679E+00   0.668918072E-01   0.174799896E+01   0.185936150E-02  -0.452058364E-01
 0.964000221E+00   0.674860669E-01   0.174460285E+01   0.513799146E-02  -0.474491962E-01
 0.103583646E+01   0.680187003E-01   0.174079617E+01   0.821526543E-02  -0.517286628E-01
 0.110973019E+01   0.686271167E-01   0.173665239E+01   0.111604074E-01  -0.557645833E-01
 0.118560923E+01   0.691406512E-01   0.173209823E+01   0.137740934E-01  -0.593256199E-01
 0.126339943E+01   0.696892414E-01   0.172720630E+01   0.161220192E-01  -0.621574366E-01
 0.134302479E+01   0.701258436E-01   0.172195455E+01   0.180141931E-01  -0.653671364E-01
 0.142440750E+01   0.704584775E-01   0.171639729E+01   0.194043924E-01  -0.680151065E-01
 0.150746804E+01   0.707211870E-01   0.171059545E+01   0.202789412E-01  -0.698439259E-01
 0.159212526E+01   0.708733702E-01   0.170460831E+01   0.205567684E-01  -0.709879952E-01
 0.167829644E+01   0.708763310E-01   0.169851522E+01   0.201667067E-01  -0.711019025E-01
 0.176589739E+01   0.707285433E-01   0.169240793E+01   0.190862019E-01  -0.703882738E-01
 0.185484251E+01   0.704753333E-01   0.168636964E+01   0.173508612E-01  -0.684061189E-01
 0.194504489E+01   0.700378894E-01   0.168051582E+01   0.148895696E-01  -0.653017783E-01
 0.203641640E+01   0.695383399E-01   0.167489862E+01   0.118350071E-01  -0.622070623E-01
 0.212886777E+01   0.689009367E-01   0.166963311E+01   0.814659343E-02  -0.576749760E-01
 0.222230865E+01   0.682185728E-01   0.166475288E+01   0.394480860E-02  -0.517375248E-01
 0.231664774E+01   0.675266528E-01   0.166029632E+01  -0.701522867E-03  -0.468710412E-01
 0.241179288E+01   0.668138660E-01   0.165632287E+01  -0.575434711E-02  -0.414335078E-01
 0.250765110E+01   0.661336772E-01   0.165283589E+01  -0.111279366E-01  -0.362208900E-01
 0.260412873E+01   0.655095490E-01   0.164984640E+01  -0.167623515E-01  -0.305491390E-01
 0.270113151E+01   0.649655643E-01   0.164735485E+01  -0.226019972E-01  -0.246812103E-01
 0.279856465E+01   0.645133443E-01   0.164536498E+01  -0.286019956E-01  -0.193174245E-01
 0.289633297E+01   0.641664971E-01   0.164387354E+01  -0.347202226E-01  -0.132401310E-01
 0.299434092E+01   0.639515035E-01   0.164286038E+01  -0.409174121E-01  -0.796272947E-02
 0.309249275E+01   0.638790622E-01   0.164231771E+01  -0.471652171E-01  -0.294614553E-02
 0.319069256E+01   0.639490929E-01   0.164224776E+01  -0.534391837E-01   0.146028284E-02
 0.328884439E+01   0.641607293E-01   0.164265342E+01  -0.597142578E-01   0.652543956E-02
 0.338685234E+01   0.645119190E-01   0.164353846E+01  -0.659646234E-01   0.119340293E-01
 0.348462065E+01   0.650083595E-01   0.164489881E+01  -0.721654952E-01   0.178868973E-01
 0.358205380E+01   0.655886531E-01   0.164679123E+01  -0.782646166E-01   0.238648484E-01
 0.367905658E+01   0.662647240E-01   0.164919769E+01  -0.842252145E-01   0.303075875E-01
 0.377553421E+01   0.670215312E-01   0.165212052E+01  -0.899988886E-01   0.364067131E-01
 0.387139242E+01   0.678349897E-01   0.165556174E+01  -0.955273407E-01   0.420996241E-01
 0.396653756E+01   0.686665813E-01   0.165952275E+01  -0.100736712E+00   0.473595700E-01
 0.406087666E+01   0.694824180E-01   0.166398631E+01  -0.105550591E+00   0.525345105E-01
 0.415431754E+01   0.702302895E-01   0.166892927E+01  -0.109875292E+00   0.577927265E-01
 0.424676890E+01   0.709165148E-01   0.167428000E+01  -0.113667502E+00   0.626227976E-01
 0.433814041E+01   0.715256620E-01   0.167997193E+01  -0.116875322E+00   0.663439505E-01
 0.442834280E+01   0.719334948E-01   0.168596101E+01  -0.119351557E+00   0.695498827E-01
 0.451728792E+01   0.722218690E-01   0.169211846E+01  -0.121152165E+00   0.716307137E-01
 0.460488886E+01   0.723671179E-01   0.169835524E+01  -0.122249846E+00   0.724871190E-01
 0.469106005E+01   0.723245452E-01   0.170457735E+01  -0.122608575E+00   0.722955917E-01
 0.477571727E+01   0.720990314E-01   0.171068265E+01  -0.122254985E+00   0.708687372E-01
 0.485877781E+01   0.717449684E-01   0.171658494E+01  -0.121278085E+00   0.684954558E-01
 0.494016052E+01   0.712891557E-01   0.172221732E+01  -0.119748401E+00   0.659510829E-01
 0.501978587E+01   0.707753730E-01   0.172753505E+01  -0.117758168E+00   0.631057969E-01
 0.509757607E+01   0.701237824E-01   0.173246766E+01  -0.115286138E+00   0.591132606E-01
 0.517345511E+01   0.695015297E-01   0.173704137E+01  -0.112544502E+00   0.558134417E-01
 0.524734885E+01   0.688061167E-01   0.174119761E+01  -0.109493624E+00   0.512305736E-01
 0.531918509E+01   0.681754107E-01   0.174499612E+01  -0.106305107E+00   0.479104873E-01
 0.538889363E+01   0.675037902E-01   0.174838211E+01  -0.102937528E+00   0.446265260E-01
 0.545640637E+01   0.669096045E-01   0.175143425E+01  -0.995294715E-01   0.394172786E-01
 0.552165734E+01   0.663262783E-01   0.175412568E+01  -0.960673773E-01   0.374902510E-01
 0.558458278E+01   0.657634009E-01   0.175647747E+01  -0.925962025E-01   0.327779095E-01
 0.564512122E+01   0.653080224E-01   0.175857851E+01  -0.892006063E-01   0.297715267E-01
 0.570321349E+01   0.648442867E-01   0.176036070E+01  -0.858350530E-01   0.283221166E-01
 0.575880285E+01   0.644693968E-01   0.176192656E+01  -0.825790895E-01   0.231953677E-01
 0.581183497E+01   0.641181030E-01   0.176324620E+01  -0.794158564E-01   0.226988779E-01
 0.586225804E+01   0.638223180E-01   0.176437100E+01  -0.763789010E-01   0.181319902E-01
 0.591002278E+01   0.635708273E-01   0.176531561E+01  -0.734760153E-01   0.173993844E-01
 0.595508254E+01   0.633400675E-01   0.176608095E+01  -0.707118503E-01   0.140218918E-01
 0.599739328E+01   0.631814949E-01   0.176673857E+01  -0.681124094E-01   0.137907304E-01
 0.603691365E+01   0.630386576E-01   0.176725644E+01  -0.656687331E-01   0.105238521E-01
 0.607360506E+01   0.629078161E-01   0.176765113E+01  -0.633881999E-01   0.102609212E-01
 0.610743164E+01   0.628294633E-01   0.176798134E+01  -0.612863868E-01   0.720930711E-02
 0.613836035E+01   0.627304119E-01   0.176819349E+01  -0.593537604E-01   0.579232669E-02
 0.616636096E+01   0.626811479E-01   0.176837372E+01  -0.576063110E-01   0.643339004E-02
 0.619140611E+01   0.626683139E-01   0.176852434E+01  -0.560441364E-01   0.395960577E-02
 0.621347135E+01   0.626159638E-01   0.176858365E+01  -0.546622626E-01   0.198102849E-02
 0.623253511E+01   0.625823527E-01   0.176862190E+01  -0.534688791E-01   0.193789953E-02
 0.624857876E+01   0.625712663E-01   0.176865359E+01  -0.524654509E-01   0.193457301E-02
 0.626158666E+01   0.625741611E-01   0.176867936E+01  -0.516517828E-01   0.193916083E-02
 0.627154613E+01   0.625835783E-01   0.176869913E+01  -0.510287179E-01   0.194244846E-02
 0.627844763E+01   0.625937674E-01   0.176871286E+01  -0.505969182E-01   0.194461186E-02
 0.628228595E+01   0.626007318E-01   0.176872050E+01  -0.503567548E-01   0.194577436E-02
 0.899353865E-03   0.771053003E-01   0.178322506E+01  -0.502311903E-01  -0.205374400E-02
 0.473767679E-02   0.770963843E-01   0.178321531E+01  -0.499354585E-01  -0.199464130E-02
 0.116391775E-01   0.770838914E-01   0.178319847E+01  -0.494036788E-01  -0.188822222E-02
 0.215986473E-01   0.770738795E-01   0.178317570E+01  -0.486361866E-01  -0.173435189E-02
 0.346065430E-01   0.770750651E-01   0.178314871E+01  -0.476336222E-01  -0.153295857E-02
 0.506501997E-01   0.770978813E-01   0.178311879E+01  -0.463968767E-01  -0.173614505E-02
 0.697139564E-01   0.771221129E-01   0.178305458E+01  -0.449284885E-01  -0.388442861E-02
 0.917791922E-01   0.771366379E-01   0.178293178E+01  -0.432309032E-01  -0.517405278E-02
 0.116824351E+00   0.771772466E-01   0.178277099E+01  -0.413047903E-01  -0.592806972E-02
 0.144824962E+00   0.772448563E-01   0.178255596E+01  -0.391524082E-01  -0.755944194E-02
 0.175753667E+00   0.773036194E-01   0.178223261E+01  -0.367842233E-01  -0.105430374E-01
 0.209580248E+00   0.774258596E-01   0.178185136E+01  -0.341917034E-01  -0.104001122E-01
 0.246271653E+00   0.775262496E-01   0.178130697E+01  -0.314005579E-01  -0.143433772E-01
 0.285792031E+00   0.777084451E-01   0.178067630E+01  -0.283931945E-01  -0.156051376E-01
 0.328102769E+00   0.778963650E-01   0.177986078E+01  -0.251984851E-01  -0.174695868E-01
 0.373162524E+00   0.781483039E-01   0.177888983E+01  -0.218105015E-01  -0.212275270E-01
 0.420927270E+00   0.784238788E-01   0.177769793E+01  -0.182555936E-01  -0.217724692E-01
 0.471350337E+00   0.787544419E-01   0.177628653E+01  -0.145388906E-01  -0.270517990E-01
 0.524382457E+00   0.791453714E-01   0.177463065E+01  -0.106740603E-01  -0.297350118E-01
 0.579971813E+00   0.795917377E-01   0.177269640E+01  -0.668397841E-02  -0.321778326E-01
 0.638064089E+00   0.800675863E-01   0.177043402E+01  -0.260878938E-02  -0.364467788E-01
 0.698602525E+00   0.806223989E-01   0.176785578E+01   0.155159645E-02  -0.408591152E-01
 0.761527970E+00   0.812359091E-01   0.176491702E+01   0.575446976E-02  -0.448205943E-01
 0.826778940E+00   0.818668186E-01   0.176156389E+01   0.993344526E-02  -0.475787814E-01
 0.894291679E+00   0.825361244E-01   0.175779334E+01   0.140583337E-01  -0.533352044E-01
 0.964000221E+00   0.832688388E-01   0.175360304E+01   0.181030356E-01  -0.590694833E-01
 0.103583646E+01   0.840204565E-01   0.174895394E+01   0.219814166E-01  -0.619660222E-01
 0.110973019E+01   0.847075030E-01   0.174380646E+01   0.255617295E-01  -0.665426319E-01
 0.118560923E+01   0.854365013E-01   0.173822117E+01   0.288758920E-01  -0.723283208E-01
 0.126339943E+01   0.860795966E-01   0.173216565E+01   0.317440751E-01  -0.753307815E-01
 0.134302479E+01   0.866920740E-01   0.172569552E+01   0.341525062E-01  -0.801370101E-01
 0.142440750E+01   0.871479351E-01   0.171883180E+01   0.359153332E-01  -0.828253509E-01
 0.150746804E+01   0.875150078E-01   0.171165826E+01   0.370390979E-01  -0.852509677E-01
 0.159212526E+01   0.877345086E-01   0.170424863E+01   0.374140713E-01  -0.869103442E-01
 0.167829644E+01   0.877572705E-01   0.169670408E+01   0.369502081E-01  -0.869932471E-01